LAMMPS data file via write_data, version 11 Aug 2017, timestep = 500000

7152 atoms
3 atom types
4000 bonds
1 bond types
2000 angles
1 angle types

0.0000000000000000e+00 4.5679949999999998e+01 xlo xhi
0.0000000000000000e+00 4.6885919999999999e+01 ylo yhi
0.0000000000000000e+00 6.5000000000000000e+01 zlo zhi

Masses

1 1.0079
2 15.9994
3 107.868

Bond Coeffs # harmonic

1 450 0.9572

Angle Coeffs # harmonic

1 500 104.52

Atoms # full

6001 444 3 0.0000000000000000e+00 1.6907200000000000e+00 0.0000000000000000e+00 0.0000000000000000e+00 0 0 0
6002 444 3 0.0000000000000000e+00 4.2285000000000004e+00 1.4651900000000000e+00 0.0000000000000000e+00 0 0 0
6003 444 3 0.0000000000000000e+00 1.6907700000000001e+00 0.0000000000000000e+00 7.1781499999999996e+00 0 0 0
6004 444 3 0.0000000000000000e+00 4.2285500000000003e+00 1.4651900000000000e+00 7.1781499999999996e+00 0 0 0
6005 444 3 0.0000000000000000e+00 2.5366499999999998e+00 1.4651900000000000e+00 2.3926400000000001e+00 0 0 0
6006 444 3 0.0000000000000000e+00 5.0744199999999999e+00 0.0000000000000000e+00 2.3926400000000001e+00 0 0 0
6007 444 3 0.0000000000000000e+00 8.4509000000000001e-01 1.4651900000000000e+00 4.7824200000000001e+00 0 0 0
6008 444 3 0.0000000000000000e+00 3.3828600000000000e+00 0.0000000000000000e+00 4.7824499999999999e+00 0 0 0
6009 444 3 0.0000000000000000e+00 1.6907200000000000e+00 2.9303699999999999e+00 0.0000000000000000e+00 0 0 0
6010 444 3 0.0000000000000000e+00 4.2285000000000004e+00 4.3955599999999997e+00 0.0000000000000000e+00 0 0 0
6011 444 3 0.0000000000000000e+00 1.6907700000000001e+00 2.9303699999999999e+00 7.1781899999999998e+00 0 0 0
6012 444 3 0.0000000000000000e+00 4.2285500000000003e+00 4.3955599999999997e+00 7.1781600000000001e+00 0 0 0
6013 444 3 0.0000000000000000e+00 2.5366499999999998e+00 4.3955599999999997e+00 2.3926400000000001e+00 0 0 0
6014 444 3 0.0000000000000000e+00 5.0744199999999999e+00 2.9303699999999999e+00 2.3926400000000001e+00 0 0 0
6015 444 3 0.0000000000000000e+00 8.4509000000000001e-01 4.3955599999999997e+00 4.7824499999999999e+00 0 0 0
6016 444 3 0.0000000000000000e+00 3.3828700000000000e+00 2.9303699999999999e+00 4.7824400000000002e+00 0 0 0
6017 444 3 0.0000000000000000e+00 1.6907200000000000e+00 5.8607399999999998e+00 0.0000000000000000e+00 0 0 0
6018 444 3 0.0000000000000000e+00 4.2285000000000004e+00 7.3259299999999996e+00 0.0000000000000000e+00 0 0 0
6019 444 3 0.0000000000000000e+00 1.6907700000000001e+00 5.8607399999999998e+00 7.1781499999999996e+00 0 0 0
6020 444 3 0.0000000000000000e+00 4.2285500000000003e+00 7.3259299999999996e+00 7.1781499999999996e+00 0 0 0
6021 444 3 0.0000000000000000e+00 2.5366499999999998e+00 7.3259299999999996e+00 2.3926400000000001e+00 0 0 0
6022 444 3 0.0000000000000000e+00 5.0744199999999999e+00 5.8607399999999998e+00 2.3926400000000001e+00 0 0 0
6023 444 3 0.0000000000000000e+00 8.4509000000000001e-01 7.3259299999999996e+00 4.7824200000000001e+00 0 0 0
6024 444 3 0.0000000000000000e+00 3.3828600000000000e+00 5.8607399999999998e+00 4.7824499999999999e+00 0 0 0
6129 444 3 0.0000000000000000e+00 6.7662699999999996e+00 0.0000000000000000e+00 0.0000000000000000e+00 0 0 0
6131 444 3 0.0000000000000000e+00 6.7663200000000003e+00 0.0000000000000000e+00 7.1781499999999996e+00 0 0 0
6133 444 3 0.0000000000000000e+00 7.6121999999999996e+00 1.4651900000000000e+00 2.3926400000000001e+00 0 0 0
6135 444 3 0.0000000000000000e+00 5.9206399999999997e+00 1.4651900000000000e+00 4.7824200000000001e+00 0 0 0
6137 444 3 0.0000000000000000e+00 6.7662699999999996e+00 2.9303699999999999e+00 0.0000000000000000e+00 0 0 0
6139 444 3 0.0000000000000000e+00 6.7663200000000003e+00 2.9303699999999999e+00 7.1781899999999998e+00 0 0 0
6141 444 3 0.0000000000000000e+00 7.6121999999999996e+00 4.3955599999999997e+00 2.3926400000000001e+00 0 0 0
6143 444 3 0.0000000000000000e+00 5.9206399999999997e+00 4.3955599999999997e+00 4.7824499999999999e+00 0 0 0
6145 444 3 0.0000000000000000e+00 6.7662699999999996e+00 5.8607399999999998e+00 0.0000000000000000e+00 0 0 0
6147 444 3 0.0000000000000000e+00 6.7663200000000003e+00 5.8607399999999998e+00 7.1781499999999996e+00 0 0 0
6149 444 3 0.0000000000000000e+00 7.6121999999999996e+00 7.3259299999999996e+00 2.3926400000000001e+00 0 0 0
6151 444 3 0.0000000000000000e+00 5.9206399999999997e+00 7.3259299999999996e+00 4.7824200000000001e+00 0 0 0
6130 444 3 0.0000000000000000e+00 9.3040500000000002e+00 1.4651900000000000e+00 0.0000000000000000e+00 0 0 0
6132 444 3 0.0000000000000000e+00 9.3041000000000000e+00 1.4651900000000000e+00 7.1781499999999996e+00 0 0 0
6134 444 3 0.0000000000000000e+00 1.0149970000000000e+01 0.0000000000000000e+00 2.3926400000000001e+00 0 0 0
6136 444 3 0.0000000000000000e+00 8.4584100000000007e+00 0.0000000000000000e+00 4.7824499999999999e+00 0 0 0
6138 444 3 0.0000000000000000e+00 9.3040500000000002e+00 4.3955599999999997e+00 0.0000000000000000e+00 0 0 0
6140 444 3 0.0000000000000000e+00 9.3041000000000000e+00 4.3955599999999997e+00 7.1781600000000001e+00 0 0 0
6142 444 3 0.0000000000000000e+00 1.0149970000000000e+01 2.9303699999999999e+00 2.3926400000000001e+00 0 0 0
6144 444 3 0.0000000000000000e+00 8.4584200000000003e+00 2.9303699999999999e+00 4.7824400000000002e+00 0 0 0
6146 444 3 0.0000000000000000e+00 9.3040500000000002e+00 7.3259299999999996e+00 0.0000000000000000e+00 0 0 0
6148 444 3 0.0000000000000000e+00 9.3041000000000000e+00 7.3259299999999996e+00 7.1781499999999996e+00 0 0 0
6150 444 3 0.0000000000000000e+00 1.0149970000000000e+01 5.8607399999999998e+00 2.3926400000000001e+00 0 0 0
6152 444 3 0.0000000000000000e+00 8.4584100000000007e+00 5.8607399999999998e+00 4.7824499999999999e+00 0 0 0
6263 444 3 0.0000000000000000e+00 1.0996190000000000e+01 1.4651900000000000e+00 4.7824200000000001e+00 0 0 0
6271 444 3 0.0000000000000000e+00 1.0996190000000000e+01 4.3955599999999997e+00 4.7824499999999999e+00 0 0 0
6279 444 3 0.0000000000000000e+00 1.0996190000000000e+01 7.3259299999999996e+00 4.7824200000000001e+00 0 0 0
1399 444 2 -8.2999999999999996e-01 6.0634921815208811e+00 6.7805891736593198e+00 1.0400808879064051e+01 2 -1 0
5343 444 1 4.1499999999999998e-01 3.5040418709061001e+00 4.8193404342421511e+00 1.1352819216575989e+01 2 -1 0
5341 444 2 -8.2999999999999996e-01 3.2136088231158024e+00 5.2125002829415239e+00 1.0529832773679917e+01 2 -1 0
1950 444 1 4.1499999999999998e-01 8.7463131192520613e+00 5.2459290933597362e+00 1.1344368490244930e+01 2 -4 0
1948 444 2 -8.2999999999999996e-01 8.7266960612666669e+00 5.7586655152162640e+00 1.2152421285531686e+01 2 -4 0
1949 444 1 4.1499999999999998e-01 7.9354206470167750e+00 5.4649112219288263e+00 1.2603890564851186e+01 2 -4 0
46 444 2 -8.2999999999999996e-01 5.6802364444232110e+00 4.2147859147027900e+00 1.0203911623506702e+01 3 -2 0
4205 444 1 4.1499999999999998e-01 3.8186641162782786e+00 3.5326674197802403e+00 1.3065024177401662e+01 3 -3 0
4206 444 1 4.1499999999999998e-01 3.8546601759698849e+00 4.8938419760325438e+00 1.3726691303663763e+01 3 -3 0
4204 444 2 -8.2999999999999996e-01 4.2722131743903553e+00 4.3751929200413215e+00 1.3039025294665967e+01 3 -3 0
47 444 1 4.1499999999999998e-01 4.7381945255038822e+00 4.1793335751389797e+00 1.0369839755874212e+01 3 -2 0
48 444 1 4.1499999999999998e-01 5.9006001192951372e+00 5.1439902525964003e+00 1.0269112667601856e+01 3 -2 0
316 444 2 -8.2999999999999996e-01 8.4306995907132034e+00 3.8217994828836188e+00 1.4846533038254012e+01 1 2 0
5049 444 1 4.1499999999999998e-01 3.7426489424717966e+00 1.6370837247650682e+00 1.0281406661149180e+01 2 2 0
318 444 1 4.1499999999999998e-01 7.7546653504958449e+00 4.4687236357780904e+00 1.4644793618036864e+01 1 2 0
2866 444 2 -8.2999999999999996e-01 1.0909839014333992e+01 3.8992632229541924e+00 1.0225227712132902e+01 -2 -5 0
774 444 1 4.1499999999999998e-01 7.9367020143774338e+00 2.8809004525514172e+00 1.0605638303563879e+01 -6 4 0
317 444 1 4.1499999999999998e-01 9.2560982221858481e+00 4.2891272249325212e+00 1.4717870303901201e+01 1 2 0
5048 444 1 4.1499999999999998e-01 4.9677101513404569e+00 2.5245582617239268e+00 1.0222154690623745e+01 2 2 0
2326 444 2 -8.2999999999999996e-01 3.3066118752596028e+00 1.9918343768228921e+00 1.2912321338257655e+01 -4 3 0
2328 444 1 4.1499999999999998e-01 3.4633534195760682e+00 1.1485355259220837e+00 1.3337187259750650e+01 -4 3 0
772 444 2 -8.2999999999999996e-01 8.2416158237336390e+00 3.7413475384463908e+00 1.0317730420663025e+01 -6 4 0
411 444 1 4.1499999999999998e-01 1.8215231143350998e+00 7.4756760382257914e+00 1.3375612320128097e+01 0 3 0
2327 444 1 4.1499999999999998e-01 2.8425946357339411e+00 1.7711145832580490e+00 1.2104730571695976e+01 -4 3 0
5047 444 2 -8.2999999999999996e-01 4.6975412180751706e+00 1.6062768156527532e+00 1.0222543176222405e+01 2 2 0
325 444 2 -8.2999999999999996e-01 6.6147709180260250e+00 5.4644780159894211e+00 1.3908525152374384e+01 4 -5 0
773 444 1 4.1499999999999998e-01 7.4797931873751171e+00 4.1364104682960461e+00 9.8937215258529605e+00 -6 4 0
408 444 1 4.1499999999999998e-01 7.1360300916716604e+00 2.9981713738742055e+00 1.4344248720343046e+01 -2 2 0
407 444 1 4.1499999999999998e-01 5.6484169752447855e+00 3.0583672173129020e+00 1.4069876285470325e+01 -2 2 0
2372 444 1 4.1499999999999998e-01 1.4206069633536684e+00 8.5068156130268091e-01 1.5165978590661936e+01 -2 4 0
327 444 1 4.1499999999999998e-01 5.9159284999120469e+00 5.3565872982785026e+00 1.3263380761382420e+01 4 -5 0
5342 444 1 4.1499999999999998e-01 3.2398112763344740e+00 6.1555068789268610e+00 1.0691958411286317e+01 2 -1 0
3406 444 2 -8.2999999999999996e-01 1.2237337944689415e+00 3.6534210525323574e+00 9.8132839286792493e+00 4 3 0
3407 444 1 4.1499999999999998e-01 1.9197936729266150e+00 4.3093537975388525e+00 9.8518371337895445e+00 4 3 0
406 444 2 -8.2999999999999996e-01 6.4025402771368869e+00 2.4702897295373485e+00 1.4028706554879291e+01 -2 2 0
616 444 2 -8.2999999999999996e-01 2.0515212685669724e+00 1.3131215848667153e+00 1.0383135497337181e+01 -2 2 0
617 444 1 4.1499999999999998e-01 1.2851105117042330e+00 7.6163719975777566e-01 1.0540334247646408e+01 -2 2 0
728 444 1 4.1499999999999998e-01 8.0708920458626476e+00 4.5153302890261443e-01 1.0581514986563667e+01 -4 -3 0
4436 444 1 4.1499999999999998e-01 7.0307312061102376e+00 1.9765499526638106e+00 1.2440483984201665e+01 -1 5 0
618 444 1 4.1499999999999998e-01 1.6885639938526329e+00 2.1624447079389206e+00 1.0131850058948601e+01 -2 2 0
2313 444 1 4.1499999999999998e-01 4.5950529937427129e+00 4.9374384350834860e-01 1.5265894549372165e+01 -3 0 0
3408 444 1 4.1499999999999998e-01 4.2404756970286100e-01 4.1400765209807036e+00 1.0013035455047445e+01 4 3 0
2312 444 1 4.1499999999999998e-01 5.9638650448480375e+00 1.1324098799059068e+00 1.5367651760390357e+01 -3 0 0
2371 444 2 -8.2999999999999996e-01 6.3269281854467729e-01 8.9576182115819214e-01 1.4624322749506607e+01 -2 4 0
4437 444 1 4.1499999999999998e-01 6.4554569396419170e+00 1.5298418406738681e+00 1.1113304009059878e+01 -1 5 0
1400 444 1 4.1499999999999998e-01 6.2853735447062169e+00 7.6198104858329749e+00 9.9974379145960413e+00 2 -1 0
3607 444 2 -8.2999999999999996e-01 3.7910578285004648e-01 3.4394979114136564e+00 1.5563462160831083e+01 -1 -2 0
2868 444 1 4.1499999999999998e-01 9.9528412307146947e+00 3.8799261430968586e+00 1.0221585244193102e+01 -2 -5 0
4435 444 2 -8.2999999999999996e-01 7.2774032899652532e+00 1.5903554836662661e+00 1.1600103939734204e+01 -1 5 0
326 444 1 4.1499999999999998e-01 6.2501255505188604e+00 6.0643004078770035e+00 1.4559278270921720e+01 4 -5 0
2311 444 2 -8.2999999999999996e-01 5.2964404624940604e+00 6.8561051868688971e-01 1.5888369199617207e+01 -3 0 0
890 444 1 4.1499999999999998e-01 3.4642603233562141e+00 6.8722273503427456e+00 1.5375233845430191e+01 3 1 0
891 444 1 4.1499999999999998e-01 1.9548278294905559e+00 6.9861644336883346e+00 1.5352259449028169e+01 3 1 0
4481 444 1 4.1499999999999998e-01 2.4666591504820921e+00 4.7684333182820167e+00 1.5988239867600477e+01 -1 -1 0
2867 444 1 4.1499999999999998e-01 1.1150774575470157e+01 3.6850652615019301e+00 1.1126505233549663e+01 -2 -5 0
4540 444 2 -8.2999999999999996e-01 1.1166646683210104e+01 4.2386448996043962e+00 1.5496428614817846e+01 -2 0 0
889 444 2 -8.2999999999999996e-01 2.6791751983333438e+00 6.4571574269626879e+00 1.5018035477845787e+01 3 1 0
2555 444 1 4.1499999999999998e-01 1.1192522464276514e+01 6.6299812603393562e+00 1.3587896108808241e+01 0 -2 0
1401 444 1 4.1499999999999998e-01 5.7728729466444095e+00 7.0081906737741289e+00 1.1283967976208876e+01 2 -1 0
3609 444 1 4.1499999999999998e-01 3.0160488471087082e-01 2.5338061038840967e+00 1.5263547455177649e+01 -1 -2 0
704 444 1 4.1499999999999998e-01 1.1207144199145267e+01 3.8515522832596472e+00 1.3478708444665804e+01 0 0 0
409 444 2 -8.2999999999999996e-01 1.0184092342266644e+00 7.4961896639388321e+00 1.2855208957829518e+01 0 3 0
2556 444 1 4.1499999999999998e-01 9.7270852330658677e+00 6.7904293221521286e+00 1.3243446622230628e+01 0 -2 0
2554 444 2 -8.2999999999999996e-01 1.0409828225646953e+01 7.1283055091498850e+00 1.3823044404328348e+01 0 -2 0
5645 444 1 4.1499999999999998e-01 9.3900165817908654e+00 7.3554382434076278e+00 1.1047349131568650e+01 -1 -2 0
3190 444 2 -8.2999999999999996e-01 6.1575390990696857e+00 7.6294166104602787e+00 1.5442572626976519e+01 -3 -2 0
2778 444 1 4.1499999999999998e-01 2.4884858200950908e+00 7.6579819365954274e+00 9.6485108052505293e+00 3 4 0
3192 444 1 4.1499999999999998e-01 6.9784026479417456e+00 7.7680210975750565e+00 1.5915017035263407e+01 -3 -2 0
410 444 1 4.1499999999999998e-01 1.3030195693767050e+00 7.7774385175897685e+00 1.1985652309596556e+01 0 3 0
5878 444 2 -8.2999999999999996e-01 9.3828843727477889e+00 2.2076930366126994e+00 1.6924144502157915e+01 -5 1 0
5879 444 1 4.1499999999999998e-01 9.1273539033344750e+00 2.9143648433874940e+00 1.6331226483747649e+01 -5 1 0
2112 444 1 4.1499999999999998e-01 4.2403432252727393e+00 5.7514567348986194e+00 2.4345618440197498e+01 5 3 0
261 444 1 4.1499999999999998e-01 7.7754360694159699e+00 8.0404579191709713e-01 2.3927785677967798e+01 0 2 0
3973 444 2 -8.2999999999999996e-01 1.1800196029669199e+00 3.1135493186685776e+00 2.3215412750559075e+01 6 3 0
5880 444 1 4.1499999999999998e-01 9.8177414608060740e+00 2.6510286977423916e+00 1.7652557351667841e+01 -5 1 0
2800 444 2 -8.2999999999999996e-01 9.0078715841271446e+00 7.1298093144979449e+00 1.8545018152806211e+01 -1 0 0
5260 444 2 -8.2999999999999996e-01 8.8887255648260961e+00 2.4449637222096721e-01 1.8919869251852148e+01 1 4 0
2802 444 1 4.1499999999999998e-01 8.0531686102170976e+00 7.0863805833492748e+00 1.8491272336422384e+01 -1 0 0
2801 444 1 4.1499999999999998e-01 9.2820829881530891e+00 7.4532655736463953e+00 1.7686871250238475e+01 -1 0 0
4482 444 1 4.1499999999999998e-01 2.3407822197831041e+00 3.3651375195246609e+00 1.6542145304673152e+01 -1 -1 0
5262 444 1 4.1499999999999998e-01 8.7332522515734698e+00 8.3836503906903759e-01 1.8185443987846025e+01 1 4 0
234 444 1 4.1499999999999998e-01 1.4161458366201298e+00 7.1188588606527379e+00 1.8638327452040219e+01 2 2 0
5448 444 1 4.1499999999999998e-01 5.8774602880659845e+00 2.1467414898377850e+00 2.1483944845177660e+01 2 0 0
5446 444 2 -8.2999999999999996e-01 6.5990287295792340e+00 2.5985207475032746e+00 2.1046375656060707e+01 2 0 0
3645 444 1 4.1499999999999998e-01 1.2525926222518418e+00 1.2532924410083484e+00 1.9249090556797285e+01 0 -2 0
685 444 2 -8.2999999999999996e-01 6.3456242038992858e+00 7.4237944220057344e+00 1.8692704516868336e+01 4 1 0
686 444 1 4.1499999999999998e-01 6.2529499759122231e+00 6.7333727689723757e+00 1.9349181924462833e+01 4 1 0
5261 444 1 4.1499999999999998e-01 9.1233380883389028e+00 8.1970087982034201e-01 1.9648106040983183e+01 1 4 0
4570 444 2 -8.2999999999999996e-01 4.7755249392134269e+00 2.1058057945029662e+00 2.3210778257186156e+01 -1 -1 0
1158 444 1 4.1499999999999998e-01 3.6581870314769436e+00 4.7635010837633036e+00 1.8287434417431040e+01 6 -5 0
5467 444 2 -8.2999999999999996e-01 2.7212410221671077e+00 4.4192044380516169e+00 2.1444577713876882e+01 0 4 0
2485 444 2 -8.2999999999999996e-01 9.2607967754222944e+00 6.0058851859463616e+00 2.4023799737369025e+01 4 2 0
3243 444 1 4.1499999999999998e-01 1.0856103915593346e+01 4.0929496432400878e+00 1.9192816572137737e+01 1 5 0
5469 444 1 4.1499999999999998e-01 3.1833203259763239e+00 4.9803452983829173e+00 2.2067342826053142e+01 0 4 0
3241 444 2 -8.2999999999999996e-01 1.1139793558892311e+01 3.8155813482504275e+00 1.8321714197398705e+01 1 5 0
4019 444 1 4.1499999999999998e-01 6.5539845544452806e+00 1.0679475168664834e+00 1.7651791286935687e+01 -6 -1 0
4018 444 2 -8.2999999999999996e-01 6.0702607723748576e+00 1.4037149568565264e+00 1.8406446087810608e+01 -6 -1 0
4480 444 2 -8.2999999999999996e-01 2.8213280866767692e+00 4.1847048927793669e+00 1.6658839622566980e+01 -1 -1 0
2486 444 1 4.1499999999999998e-01 8.9976139028468740e+00 5.0932167130112962e+00 2.3905465074075916e+01 4 2 0
5623 444 2 -8.2999999999999996e-01 9.1832189283398229e+00 4.7245034462643254e+00 2.0406940930940728e+01 -2 9 0
3413 444 1 4.1499999999999998e-01 6.2836233326506550e+00 4.3433402855798242e+00 2.0564068268395950e+01 -2 0 0
3412 444 2 -8.2999999999999996e-01 6.4523262805874486e+00 5.2676344714521264e+00 2.0381169867291263e+01 -2 0 0
3414 444 1 4.1499999999999998e-01 6.5350597539035880e+00 5.6719642764788532e+00 2.1244827625507245e+01 -2 0 0
5624 444 1 4.1499999999999998e-01 8.2604403318446167e+00 4.4726011388274678e+00 2.0442401646222120e+01 -2 9 0
5625 444 1 4.1499999999999998e-01 9.1722469311401138e+00 5.6351247498610970e+00 2.0112184415786917e+01 -2 9 0
509 444 1 4.1499999999999998e-01 2.2154328538082710e+00 7.2210568968476485e+00 2.3664859307637883e+01 3 -4 0
233 444 1 4.1499999999999998e-01 2.7395434032679553e+00 6.5500576855020674e+00 1.9104138505098700e+01 2 2 0
4020 444 1 4.1499999999999998e-01 5.4293842930985772e+00 7.2070341370032664e-01 1.8603942075514798e+01 -6 -1 0
1156 444 2 -8.2999999999999996e-01 3.9311058529644072e+00 5.0639064923634098e+00 1.9154328306187431e+01 6 -5 0
1157 444 1 4.1499999999999998e-01 4.8837411273546962e+00 4.9705704687312373e+00 1.9151746507320944e+01 6 -5 0
5071 444 2 -8.2999999999999996e-01 8.1327443294727058e+00 3.4419938614732937e+00 2.3773210410289209e+01 -2 6 0
2322 444 1 4.1499999999999998e-01 1.0896060033570848e+01 2.9773012104584433e+00 2.2133465098875334e+01 2 0 0
1709 444 1 4.1499999999999998e-01 3.4039663153657573e-01 7.2387584138264414e+00 2.1453850039967186e+01 2 5 0
5073 444 1 4.1499999999999998e-01 7.2666953680019910e+00 3.4153489889828998e+00 2.3366416542967059e+01 -2 6 0
4571 444 1 4.1499999999999998e-01 4.1842137863444471e+00 2.8502550661719748e+00 2.3099519668389167e+01 -1 -1 0
2089 444 2 -8.2999999999999996e-01 7.1600150149771711e+00 6.9192604551845660e+00 2.2333037034538165e+01 0 -1 0
4572 444 1 4.1499999999999998e-01 4.1971399100774356e+00 1.3443674799796037e+00 2.3254538947561105e+01 -1 -1 0
2320 444 2 -8.2999999999999996e-01 1.0439756371480053e+01 2.7381376992751241e+00 2.1326730906723903e+01 2 0 0
3803 444 1 4.1499999999999998e-01 2.8939481009530463e+00 5.9988339387448730e-01 1.7919711082595850e+01 0 -1 0
5447 444 1 4.1499999999999998e-01 6.7071637365730199e+00 2.1317115109569635e+00 2.0217745134289352e+01 2 0 0
2321 444 1 4.1499999999999998e-01 9.7799656690379084e+00 3.4221243313445471e+00 2.1212399275770771e+01 2 0 0
2111 444 1 4.1499999999999998e-01 2.8524053703864611e+00 5.1469047155221288e+00 2.4351995506084819e+01 5 3 0
2110 444 2 -8.2999999999999996e-01 3.4559944991335185e+00 5.6509525081930612e+00 2.3806240354276330e+01 5 3 0
2090 444 1 4.1499999999999998e-01 7.8540169700637286e+00 6.5283774677590323e+00 2.2863888848322610e+01 0 -1 0
3802 444 2 -8.2999999999999996e-01 2.6557143826411895e+00 1.2934808898981363e+00 1.7304568882890798e+01 0 -1 0
3643 444 2 -8.2999999999999996e-01 5.4802296955587293e-01 6.1972190776887615e-01 1.9384744451488771e+01 0 -2 0
3974 444 1 4.1499999999999998e-01 1.5389450017399655e+00 3.7489101998172818e+00 2.2595960560140881e+01 6 3 0
3975 444 1 4.1499999999999998e-01 1.4280309934058923e+00 2.2616751738045178e+00 2.2856201546292976e+01 6 3 0
5468 444 1 4.1499999999999998e-01 3.0414067877981181e+00 4.6982255098092276e+00 2.0586746627601055e+01 0 4 0
3804 444 1 4.1499999999999998e-01 3.4140391273324044e+00 1.8775203867000703e+00 1.7295976862120888e+01 0 -1 0
2091 444 1 4.1499999999999998e-01 6.5397186128760652e+00 7.2720444140493683e+00 2.2971008674482317e+01 0 -1 0
1314 444 1 4.1499999999999998e-01 2.3815548047935851e+00 2.0174773711803778e-01 2.3590333803010974e+01 -4 -3 0
2124 444 1 4.1499999999999998e-01 1.1372731415602271e+01 5.7734423159034902e+00 2.1971235014196417e+01 -4 -3 0
5337 444 1 4.1499999999999998e-01 1.1298305112214479e+01 1.0127728471473401e+00 1.6659568051698201e+01 1 9 0
687 444 1 4.1499999999999998e-01 5.5046979115081003e+00 7.4347456619400720e+00 1.8235588218223203e+01 4 1 0
232 444 2 -8.2999999999999996e-01 2.2790876311362851e+00 7.3771317125492573e+00 1.8962147236845222e+01 2 2 0
1238 444 1 4.1499999999999998e-01 1.0020957701112929e+01 7.8046729312935739e+00 2.4163002803386028e+01 3 -5 0
1312 444 2 -8.2999999999999996e-01 3.0002998651440875e+00 3.1699905809614920e-01 2.4311515941769908e+01 -4 -3 0
260 444 1 4.1499999999999998e-01 8.8670035597650561e+00 1.3470829020548216e+00 2.3030296707647974e+01 0 2 0
4542 444 1 4.1499999999999998e-01 1.1196997822330182e+01 3.8771055591005914e+00 1.6382205513411339e+01 -2 0 0
259 444 2 -8.2999999999999996e-01 8.4063518612566330e+00 5.3958319237780739e-01 2.3258280638145326e+01 0 2 0
1019 444 1 4.1499999999999998e-01 1.0827088888724838e+00 2.4465626006465696e-01 2.1440951817479760e+01 6 -5 0
4479 444 1 4.1499999999999998e-01 9.8592671447702576e-02 3.4010220380478260e+00 2.7631865457507832e+01 2 -2 0
3563 444 1 4.1499999999999998e-01 1.1014484669414159e+01 3.1372441586448105e+00 2.6206302240219411e+01 1 6 0
1706 444 1 4.1499999999999998e-01 2.7105183454975945e+00 3.9241836280889073e+00 3.0812962517749874e+01 7 -3 0
42 444 1 4.1499999999999998e-01 7.1586707084804613e-01 7.1868661259994164e+00 2.7808021603059018e+01 3 -2 0
1164 444 1 4.1499999999999998e-01 1.1200377538050606e+01 6.8830022260460788e-01 2.6835851070096229e+01 3 0 0
803 444 1 4.1499999999999998e-01 4.8343657539007279e-01 3.5932442130152284e+00 3.1978586671716855e+01 1 3 0
804 444 1 4.1499999999999998e-01 6.1896680086374245e-01 3.3398591000235958e+00 3.0492207394543364e+01 1 3 0
996 444 1 4.1499999999999998e-01 3.1945838825312380e+00 7.1117579627146954e+00 2.9738367420734921e+01 -1 -2 0
2654 444 1 4.1499999999999998e-01 6.7605598148925337e+00 5.4062171765032385e+00 3.1951508442864434e+01 0 0 0
4549 444 2 -8.2999999999999996e-01 4.6471224112389971e+00 7.7316599125218612e+00 2.9001866771653802e+01 1 -4 0
2487 444 1 4.1499999999999998e-01 9.2320471465156526e+00 6.1431023378597276e+00 2.4970677230089180e+01 4 2 0
5745 444 1 4.1499999999999998e-01 4.8833352674918862e+00 8.2328803222161395e-01 2.8245479204468129e+01 -4 -2 0
5842 444 2 -8.2999999999999996e-01 3.0919927155130775e+00 9.1658739322262017e-01 2.7000191054877888e+01 1 1 0
5072 444 1 4.1499999999999998e-01 8.0088780629285754e+00 3.0305791729533387e+00 2.4628562600958421e+01 -2 6 0
2999 444 1 4.1499999999999998e-01 6.3443050321029197e+00 2.0404453062415246e+00 2.5927193707249675e+01 -4 -2 0
1309 444 2 -8.2999999999999996e-01 4.3374782243061494e-01 6.7819395671427625e+00 2.6211063813547046e+01 -2 2 0
3562 444 2 -8.2999999999999996e-01 1.1171750313254545e+01 3.9340981087369022e+00 2.6712783764819942e+01 1 6 0
2653 444 2 -8.2999999999999996e-01 7.0958718388039523e+00 6.2988582399114597e+00 3.2035113166824246e+01 0 0 0
1547 444 1 4.1499999999999998e-01 1.1570746172911079e+00 2.6774472166292487e+00 2.4985051453074242e+01 1 3 0
1548 444 1 4.1499999999999998e-01 9.7308079693135582e-02 1.9639938956851204e+00 2.5797316656386194e+01 1 3 0
5743 444 2 -8.2999999999999996e-01 5.3234814028867170e+00 5.8878142754345086e-01 2.9062492094783646e+01 -4 -2 0
3502 444 2 -8.2999999999999996e-01 6.0030380238785019e+00 4.0121111736446453e+00 3.1979039836635483e+01 2 -1 0
3000 444 1 4.1499999999999998e-01 5.2160395470197543e+00 2.4162289955060130e+00 2.4990337415886536e+01 -4 -2 0
102 444 1 4.1499999999999998e-01 8.8332503713853541e+00 1.8425778074862527e+00 2.6357989653796771e+01 0 4 0
100 444 2 -8.2999999999999996e-01 8.0178757645824668e+00 1.5435016824663708e+00 2.5955559858454610e+01 0 4 0
5583 444 1 4.1499999999999998e-01 1.0489469581718803e+01 3.8470945483054758e-01 3.1762001080826522e+01 2 -6 0
4577 444 1 4.1499999999999998e-01 1.0297644433004695e+01 5.4304773268486493e+00 2.6887886832031647e+01 -2 1 0
4576 444 2 -8.2999999999999996e-01 9.7544915910106305e+00 6.1723182946159687e+00 2.6621636384107738e+01 -2 1 0
3504 444 1 4.1499999999999998e-01 5.2781299244686846e+00 3.9667392141064388e+00 3.1355595474540209e+01 2 -1 0
3699 444 1 4.1499999999999998e-01 3.2669297211135397e+00 1.9609632990285519e+00 3.1058908732973354e+01 3 4 0
5065 444 2 -8.2999999999999996e-01 9.0483080942763490e+00 6.1856506127633706e+00 2.9140790459532205e+01 0 -1 0
4578 444 1 4.1499999999999998e-01 9.1324508113218812e+00 6.2845251181028194e+00 2.7340459567250331e+01 -2 1 0
5067 444 1 4.1499999999999998e-01 8.1007946735630298e+00 6.0501670057341013e+00 2.9150505507129754e+01 0 -1 0
3698 444 1 4.1499999999999998e-01 3.7149303690720901e+00 7.0572943724798054e-01 3.1776946844787510e+01 3 4 0
994 444 2 -8.2999999999999996e-01 2.5633089718074031e+00 6.9505848693198837e+00 3.0439614329367569e+01 -1 -2 0
458 444 1 4.1499999999999998e-01 1.9047130247916311e+00 3.9269049762029149e+00 2.6281966445646052e+01 2 -1 0
3526 444 2 -8.2999999999999996e-01 9.7802376956768580e+00 5.6800527257438409e+00 3.1937544984991661e+01 1 1 0
5844 444 1 4.1499999999999998e-01 3.4042692406850077e+00 9.8885206505728251e-01 2.6098252258701446e+01 1 1 0
3307 444 2 -8.2999999999999996e-01 7.1169065110833394e+00 4.6253132333314477e+00 2.7782560150379112e+01 3 0 0
2336 444 1 4.1499999999999998e-01 4.6801312694869868e+00 4.4434924854589655e+00 2.6452394070338620e+01 -1 3 0
2335 444 2 -8.2999999999999996e-01 4.7320595634114762e+00 5.3554916198929927e+00 2.6738390131317260e+01 -1 3 0
1026 444 1 4.1499999999999998e-01 5.5972864234253104e+00 6.6511378856288212e+00 2.5554161391769370e+01 3 2 0
1177 444 2 -8.2999999999999996e-01 9.6238704205120271e+00 3.4892799299056434e+00 2.9168985345893415e+01 4 8 0
2998 444 2 -8.2999999999999996e-01 5.5522890704782171e+00 2.5751722477458001e+00 2.5872327213185464e+01 -4 -2 0
1178 444 1 4.1499999999999998e-01 9.8413728753553276e+00 2.7672214321648605e+00 2.8579446151431657e+01 4 8 0
457 444 2 -8.2999999999999996e-01 2.1487257721023529e+00 4.8523610057730497e+00 2.6267095013362116e+01 2 -1 0
3308 444 1 4.1499999999999998e-01 6.2876155263051983e+00 4.9943405614774052e+00 2.7478705541785676e+01 3 0 0
5066 444 1 4.1499999999999998e-01 9.4168315408377303e+00 5.3024585117531986e+00 2.9120939185998882e+01 0 -1 0
3309 444 1 4.1499999999999998e-01 7.0211038557829362e+00 3.6816421526915164e+00 2.7653957259967775e+01 3 0 0
1024 444 2 -8.2999999999999996e-01 5.6697685023842430e+00 7.1642251035207698e+00 2.4749350270333558e+01 3 2 0
459 444 1 4.1499999999999998e-01 1.4381111973086023e+00 5.2953969920163848e+00 2.6730753505269252e+01 2 -1 0
1179 444 1 4.1499999999999998e-01 8.8460202400105370e+00 3.1891776326218517e+00 2.9639220588837485e+01 4 8 0
2337 444 1 4.1499999999999998e-01 4.0444311407853002e+00 5.4393732840490756e+00 2.7398968128197723e+01 -1 3 0
2176 444 2 -8.2999999999999996e-01 7.2616484186008510e+00 2.2586980688449576e+00 3.0008754111258334e+01 1 3 0
5744 444 1 4.1499999999999998e-01 4.6275711244364013e+00 5.9275212115279285e-01 2.9719702155335799e+01 -4 -2 0
3697 444 2 -8.2999999999999996e-01 3.2607290078490081e+00 1.0062814086432217e+00 3.0989798892568441e+01 3 4 0
2177 444 1 4.1499999999999998e-01 6.6653659687932922e+00 1.6123366018591110e+00 2.9630736968394316e+01 1 3 0
1705 444 2 -8.2999999999999996e-01 3.5943917315514371e+00 4.2341930757488493e+00 3.0615747064039503e+01 7 -3 0
1707 444 1 4.1499999999999998e-01 3.4835881378349836e+00 5.1635890593915592e+00 3.0415303717515542e+01 7 -3 0
192 444 1 4.1499999999999998e-01 1.0926086040486263e+01 2.0765376281624883e+00 2.4567691669185464e+01 1 0 0
2178 444 1 4.1499999999999998e-01 6.7420088086165739e+00 2.7008403091601942e+00 3.0680108810422887e+01 1 3 0
1546 444 2 -8.2999999999999996e-01 9.1329268932149454e-01 2.4568276820426744e+00 2.5884011685723852e+01 1 3 0
5843 444 1 4.1499999999999998e-01 2.2064479993707122e+00 1.2792447951104073e+00 2.6977338143274032e+01 1 1 0
3528 444 1 4.1499999999999998e-01 8.8826676348872979e+00 6.0122455058666846e+00 3.1953290963898105e+01 1 1 0
101 444 1 4.1499999999999998e-01 7.7711062568158438e+00 7.6869319940579073e-01 2.6460543685192480e+01 0 4 0
802 444 2 -8.2999999999999996e-01 1.1189421349400501e+00 3.6085736100423818e+00 3.1262953636498821e+01 1 3 0
3253 444 2 -8.2999999999999996e-01 9.6372815006966857e+00 4.0240372860563900e-01 2.8989068051919599e+01 -3 -1 0
995 444 1 4.1499999999999998e-01 1.7120369874535126e+00 7.1374109930194667e+00 3.0043805809612671e+01 -1 -2 0
190 444 2 -8.2999999999999996e-01 1.0666000635678966e+01 1.6037562891119139e+00 2.5358302469602940e+01 1 0 0
1310 444 1 4.1499999999999998e-01 9.0327293029219369e-01 7.1722179872909066e+00 2.5473865303894573e+01 -2 2 0
3254 444 1 4.1499999999999998e-01 8.6997257908708239e+00 3.3537780430819730e-01 2.8808157271868652e+01 -3 -1 0
191 444 1 4.1499999999999998e-01 1.0602429578357416e+01 6.8970680653089966e-01 2.5081347301542319e+01 1 0 0
3527 444 1 4.1499999999999998e-01 1.0100618203952211e+01 5.8957077509545952e+00 3.1061713323250306e+01 1 1 0
5978 444 1 4.1499999999999998e-01 3.8520349004373622e+00 7.4090115136646961e+00 3.2168701228202245e+01 2 0 0
1163 444 1 4.1499999999999998e-01 1.1028879267078787e+01 4.1860381210584729e-01 2.8315630610277580e+01 3 0 0
40 444 2 -8.2999999999999996e-01 4.9005034261856584e-01 7.6205024051610666e+00 2.8630942200835118e+01 3 -2 0