LAMMPS data file via write_data, version 11 Aug 2017, timestep = 500000

7152 atoms
3 atom types
4000 bonds
1 bond types
2000 angles
1 angle types

0.0000000000000000e+00 4.5679949999999998e+01 xlo xhi
0.0000000000000000e+00 4.6885919999999999e+01 ylo yhi
0.0000000000000000e+00 6.5000000000000000e+01 zlo zhi

Masses

1 1.0079
2 15.9994
3 107.868

Bond Coeffs # harmonic

1 450 0.9572

Angle Coeffs # harmonic

1 500 104.52

Atoms # full

6001 444 3 0.0000000000000000e+00 1.6907200000000000e+00 0.0000000000000000e+00 0.0000000000000000e+00 0 0 0
6002 444 3 0.0000000000000000e+00 4.2285000000000004e+00 1.4651900000000000e+00 0.0000000000000000e+00 0 0 0
6003 444 3 0.0000000000000000e+00 1.6907700000000001e+00 0.0000000000000000e+00 7.1781499999999996e+00 0 0 0
6004 444 3 0.0000000000000000e+00 4.2285500000000003e+00 1.4651900000000000e+00 7.1781499999999996e+00 0 0 0
6005 444 3 0.0000000000000000e+00 2.5366499999999998e+00 1.4651900000000000e+00 2.3926400000000001e+00 0 0 0
6006 444 3 0.0000000000000000e+00 5.0744199999999999e+00 0.0000000000000000e+00 2.3926400000000001e+00 0 0 0
6007 444 3 0.0000000000000000e+00 8.4509000000000001e-01 1.4651900000000000e+00 4.7824200000000001e+00 0 0 0
6008 444 3 0.0000000000000000e+00 3.3828600000000000e+00 0.0000000000000000e+00 4.7824499999999999e+00 0 0 0
6009 444 3 0.0000000000000000e+00 1.6907200000000000e+00 2.9303699999999999e+00 0.0000000000000000e+00 0 0 0
6010 444 3 0.0000000000000000e+00 4.2285000000000004e+00 4.3955599999999997e+00 0.0000000000000000e+00 0 0 0
6011 444 3 0.0000000000000000e+00 1.6907700000000001e+00 2.9303699999999999e+00 7.1781899999999998e+00 0 0 0
6012 444 3 0.0000000000000000e+00 4.2285500000000003e+00 4.3955599999999997e+00 7.1781600000000001e+00 0 0 0
6013 444 3 0.0000000000000000e+00 2.5366499999999998e+00 4.3955599999999997e+00 2.3926400000000001e+00 0 0 0
6014 444 3 0.0000000000000000e+00 5.0744199999999999e+00 2.9303699999999999e+00 2.3926400000000001e+00 0 0 0
6015 444 3 0.0000000000000000e+00 8.4509000000000001e-01 4.3955599999999997e+00 4.7824499999999999e+00 0 0 0
6016 444 3 0.0000000000000000e+00 3.3828700000000000e+00 2.9303699999999999e+00 4.7824400000000002e+00 0 0 0
6017 444 3 0.0000000000000000e+00 1.6907200000000000e+00 5.8607399999999998e+00 0.0000000000000000e+00 0 0 0
6018 444 3 0.0000000000000000e+00 4.2285000000000004e+00 7.3259299999999996e+00 0.0000000000000000e+00 0 0 0
6019 444 3 0.0000000000000000e+00 1.6907700000000001e+00 5.8607399999999998e+00 7.1781499999999996e+00 0 0 0
6020 444 3 0.0000000000000000e+00 4.2285500000000003e+00 7.3259299999999996e+00 7.1781499999999996e+00 0 0 0
6021 444 3 0.0000000000000000e+00 2.5366499999999998e+00 7.3259299999999996e+00 2.3926400000000001e+00 0 0 0
6022 444 3 0.0000000000000000e+00 5.0744199999999999e+00 5.8607399999999998e+00 2.3926400000000001e+00 0 0 0
6023 444 3 0.0000000000000000e+00 8.4509000000000001e-01 7.3259299999999996e+00 4.7824200000000001e+00 0 0 0
6024 444 3 0.0000000000000000e+00 3.3828600000000000e+00 5.8607399999999998e+00 4.7824499999999999e+00 0 0 0
6129 444 3 0.0000000000000000e+00 6.7662699999999996e+00 0.0000000000000000e+00 0.0000000000000000e+00 0 0 0
6131 444 3 0.0000000000000000e+00 6.7663200000000003e+00 0.0000000000000000e+00 7.1781499999999996e+00 0 0 0
6133 444 3 0.0000000000000000e+00 7.6121999999999996e+00 1.4651900000000000e+00 2.3926400000000001e+00 0 0 0
6135 444 3 0.0000000000000000e+00 5.9206399999999997e+00 1.4651900000000000e+00 4.7824200000000001e+00 0 0 0
6137 444 3 0.0000000000000000e+00 6.7662699999999996e+00 2.9303699999999999e+00 0.0000000000000000e+00 0 0 0
6139 444 3 0.0000000000000000e+00 6.7663200000000003e+00 2.9303699999999999e+00 7.1781899999999998e+00 0 0 0
6141 444 3 0.0000000000000000e+00 7.6121999999999996e+00 4.3955599999999997e+00 2.3926400000000001e+00 0 0 0
6143 444 3 0.0000000000000000e+00 5.9206399999999997e+00 4.3955599999999997e+00 4.7824499999999999e+00 0 0 0
6145 444 3 0.0000000000000000e+00 6.7662699999999996e+00 5.8607399999999998e+00 0.0000000000000000e+00 0 0 0
6147 444 3 0.0000000000000000e+00 6.7663200000000003e+00 5.8607399999999998e+00 7.1781499999999996e+00 0 0 0
6149 444 3 0.0000000000000000e+00 7.6121999999999996e+00 7.3259299999999996e+00 2.3926400000000001e+00 0 0 0
6151 444 3 0.0000000000000000e+00 5.9206399999999997e+00 7.3259299999999996e+00 4.7824200000000001e+00 0 0 0
6130 444 3 0.0000000000000000e+00 9.3040500000000002e+00 1.4651900000000000e+00 0.0000000000000000e+00 0 0 0
6132 444 3 0.0000000000000000e+00 9.3041000000000000e+00 1.4651900000000000e+00 7.1781499999999996e+00 0 0 0
6134 444 3 0.0000000000000000e+00 1.0149970000000000e+01 0.0000000000000000e+00 2.3926400000000001e+00 0 0 0
6136 444 3 0.0000000000000000e+00 8.4584100000000007e+00 0.0000000000000000e+00 4.7824499999999999e+00 0 0 0
6138 444 3 0.0000000000000000e+00 9.3040500000000002e+00 4.3955599999999997e+00 0.0000000000000000e+00 0 0 0
6140 444 3 0.0000000000000000e+00 9.3041000000000000e+00 4.3955599999999997e+00 7.1781600000000001e+00 0 0 0
6142 444 3 0.0000000000000000e+00 1.0149970000000000e+01 2.9303699999999999e+00 2.3926400000000001e+00 0 0 0
6144 444 3 0.0000000000000000e+00 8.4584200000000003e+00 2.9303699999999999e+00 4.7824400000000002e+00 0 0 0
6146 444 3 0.0000000000000000e+00 9.3040500000000002e+00 7.3259299999999996e+00 0.0000000000000000e+00 0 0 0
6148 444 3 0.0000000000000000e+00 9.3041000000000000e+00 7.3259299999999996e+00 7.1781499999999996e+00 0 0 0
6150 444 3 0.0000000000000000e+00 1.0149970000000000e+01 5.8607399999999998e+00 2.3926400000000001e+00 0 0 0
6152 444 3 0.0000000000000000e+00 8.4584100000000007e+00 5.8607399999999998e+00 4.7824499999999999e+00 0 0 0
6263 444 3 0.0000000000000000e+00 1.0996190000000000e+01 1.4651900000000000e+00 4.7824200000000001e+00 0 0 0
6271 444 3 0.0000000000000000e+00 1.0996190000000000e+01 4.3955599999999997e+00 4.7824499999999999e+00 0 0 0
6279 444 3 0.0000000000000000e+00 1.0996190000000000e+01 7.3259299999999996e+00 4.7824200000000001e+00 0 0 0
2501 444 1 4.1499999999999998e-01 4.0262815166850556e+00 1.6239473501805406e+00 1.0124430133142942e+01 2 -3 0
2500 444 2 -8.2999999999999996e-01 3.0879293097686666e+00 1.5438833096587694e+00 9.9532065093114053e+00 2 -3 0
275 444 1 4.1499999999999998e-01 3.6834736499345642e+00 5.0851192567836971e+00 1.0968972984714771e+01 -4 2 0
276 444 1 4.1499999999999998e-01 3.3575318702017380e+00 3.9569630259355795e+00 1.0013504099961933e+01 -4 2 0
274 444 2 -8.2999999999999996e-01 4.0901024974293296e+00 4.3895537430099933e+00 1.0452181260049370e+01 -4 2 0
2502 444 1 4.1499999999999998e-01 2.9510571451710299e+00 6.0919409937831004e-01 9.7987558024070918e+00 2 -3 0
3424 444 2 -8.2999999999999996e-01 6.2637022692677986e+00 3.1029102838523253e+00 1.0031267119443363e+01 -1 0 0
3426 444 1 4.1499999999999998e-01 5.4484640558257587e+00 3.5870133501289065e+00 9.8998793880443046e+00 -1 0 0
3425 444 1 4.1499999999999998e-01 5.9992710342741953e+00 2.1829603945575129e+00 1.0030807604097850e+01 -1 0 0
598 444 2 -8.2999999999999996e-01 4.1347361101824607e+00 1.7682440912645727e+00 1.3738913231779934e+01 2 4 0
599 444 1 4.1499999999999998e-01 3.5431820591857459e+00 2.4802192878482949e+00 1.3982607715874227e+01 2 4 0
2909 444 1 4.1499999999999998e-01 8.5385227944214588e+00 4.0887739253635589e+00 1.1439543681882167e+01 -2 -1 0
2908 444 2 -8.2999999999999996e-01 8.5655277515761856e+00 4.0661995716854316e+00 1.0482991021871598e+01 -2 -1 0
3300 444 1 4.1499999999999998e-01 4.9920953237772787e+00 6.1301036382346989e+00 9.8438252393572938e+00 5 1 0
201 444 1 4.1499999999999998e-01 6.2131887219239124e+00 3.9778383734954295e+00 1.3117775008393320e+01 -2 0 0
3299 444 1 4.1499999999999998e-01 5.9682695948456868e+00 7.2088061513051755e+00 1.0262609122480990e+01 5 1 0
1053 444 1 4.1499999999999998e-01 5.0111598415842735e+00 5.4851613279600455e+00 1.4498722079710927e+01 -1 3 0
1052 444 1 4.1499999999999998e-01 6.5094696273830923e+00 5.2685854048399730e+00 1.4506341832031119e+01 -1 3 0
1051 444 2 -8.2999999999999996e-01 5.7892231951482529e+00 5.5572834733914611e+00 1.3945867573144156e+01 -1 3 0
4877 444 1 4.1499999999999998e-01 8.8014814010873765e-01 1.8225752288503536e+00 1.0366104029001656e+01 -3 3 0
199 444 2 -8.2999999999999996e-01 6.2984078575092877e+00 3.0490234216032874e+00 1.2902662862411452e+01 -2 0 0
3902 444 1 4.1499999999999998e-01 8.3193819411024510e+00 7.0836354022907537e+00 1.0508435938846153e+01 2 5 0
200 444 1 4.1499999999999998e-01 6.2514258318263662e+00 3.0186996310803060e+00 1.1947097260362300e+01 -2 0 0
3901 444 2 -8.2999999999999996e-01 7.5265369055707971e+00 7.1820956246886398e+00 1.1035630605785567e+01 2 5 0
600 444 1 4.1499999999999998e-01 4.8810797847999670e+00 2.2058699048813479e+00 1.3329417615619125e+01 2 4 0
3903 444 1 4.1499999999999998e-01 7.8190849727443110e+00 7.0457964097571288e+00 1.1936779875134006e+01 2 5 0
2172 444 1 4.1499999999999998e-01 8.5438491570103530e+00 5.1150861146388760e+00 1.3938502992242649e+01 3 -5 0
2910 444 1 4.1499999999999998e-01 7.6916870122109344e+00 3.7727287140111243e+00 1.0225097386963290e+01 -2 -1 0
1345 444 2 -8.2999999999999996e-01 1.0040117487911251e+00 4.9335615164682434e+00 1.1501200152583991e+01 4 -1 0
1347 444 1 4.1499999999999998e-01 9.4184415682552103e-01 3.9791636909518568e+00 1.1539830489804482e+01 4 -1 0
5108 444 1 4.1499999999999998e-01 2.5141880398396843e-01 7.5265810950564340e+00 1.0223539122757286e+01 -3 -1 0
2623 444 2 -8.2999999999999996e-01 9.9128767207773496e+00 6.5880706071065562e+00 1.0155522860858660e+01 -2 -2 0
1346 444 1 4.1499999999999998e-01 1.2864407169729748e+00 5.1913736258695096e+00 1.2378696090200091e+01 4 -1 0
5653 444 2 -8.2999999999999996e-01 5.6378082688906890e+00 6.7422455984556628e-01 1.0297914712912350e+01 -2 3 0
3298 444 2 -8.2999999999999996e-01 5.0464784601802934e+00 7.0633404499059713e+00 1.0049600439337876e+01 5 1 0
4694 444 1 4.1499999999999998e-01 8.0148959894366865e+00 1.1476540585842441e+00 1.3998232083300078e+01 6 2 0
4695 444 1 4.1499999999999998e-01 8.3568181912173003e+00 2.4665625711430468e+00 1.3338334186895633e+01 6 2 0
2129 444 1 4.1499999999999998e-01 1.0284060540510335e+01 2.2985992973474789e+00 1.3694869763764286e+01 -1 1 0
5087 444 1 4.1499999999999998e-01 5.8371812532284038e+00 7.5403490325794911e+00 1.2925076354589885e+01 -2 0 0
4693 444 2 -8.2999999999999996e-01 8.7563003416440086e+00 1.6803200830253902e+00 1.3710449512793238e+01 6 2 0
2625 444 1 4.1499999999999998e-01 9.4924043706520109e+00 5.7526349049494829e+00 9.9518512222143389e+00 -2 -2 0
1488 444 1 4.1499999999999998e-01 2.7659250124357384e+00 6.3773008644961680e+00 1.3931621615130918e+01 2 -6 0
2146 444 2 -8.2999999999999996e-01 8.1004031407791892e+00 5.1115720587400091e+00 1.5459141817255182e+01 3 2 0
1487 444 1 4.1499999999999998e-01 3.6820510780024400e+00 7.4490641949318031e+00 1.3380321163014857e+01 2 -6 0
4876 444 2 -8.2999999999999996e-01 3.3061959861925705e-01 1.7488094536292145e+00 1.1146366276254861e+01 -3 3 0
1486 444 2 -8.2999999999999996e-01 2.9472648265997354e+00 6.8844954870424973e+00 1.3140355453996190e+01 2 -6 0
2170 444 2 -8.2999999999999996e-01 8.6279641805079468e+00 5.0820136283199169e+00 1.2985578790219202e+01 3 -5 0
4878 444 1 4.1499999999999998e-01 8.8624916892984507e-01 1.3101300255433670e+00 1.1790624289027818e+01 -3 3 0
2130 444 1 4.1499999999999998e-01 1.1147951730255489e+01 3.2864425448189292e+00 1.4449689566313635e+01 -1 1 0
2171 444 1 4.1499999999999998e-01 9.1133216679888065e+00 5.8755448496316678e+00 1.2759817323691127e+01 3 -5 0
256 444 2 -8.2999999999999996e-01 2.4864625601223040e+00 5.7174011332687185e+00 1.5535142900596098e+01 0 -4 0
257 444 1 4.1499999999999998e-01 2.6075773154400461e+00 4.7847195681782075e+00 1.5713099692118723e+01 0 -4 0
1128 444 1 4.1499999999999998e-01 4.7963145134355454e+00 2.8659461054906834e+00 1.6116204687926910e+01 -3 0 0
2312 444 1 4.1499999999999998e-01 1.0046423875574519e+01 3.2914829204205649e+00 1.0622072276413267e+01 -3 2 0
1126 444 2 -8.2999999999999996e-01 4.3958471250310804e+00 3.6949004436752770e+00 1.5854111317350998e+01 -3 0 0
3996 444 1 4.1499999999999998e-01 8.5912650078768777e+00 2.0417319319872309e+00 1.6016099034443517e+01 -3 7 0
2147 444 1 4.1499999999999998e-01 8.5171138803831514e+00 5.7414500350826723e+00 1.6047221545896566e+01 3 2 0
2148 444 1 4.1499999999999998e-01 8.2857442444985150e+00 4.2582335694209927e+00 1.5851180056342798e+01 3 2 0
2613 444 1 4.1499999999999998e-01 1.0593753649515585e+00 3.1943766017754238e+00 1.4008357473501503e+01 1 1 0
991 444 2 -8.2999999999999996e-01 6.6225813784799636e-01 7.5180567190149601e+00 1.5168965964881210e+01 0 4 0
1076 444 1 4.1499999999999998e-01 1.0924589414306865e+01 3.1125154340572370e-01 1.3794814234778286e+01 1 -3 0
4704 444 1 4.1499999999999998e-01 1.1288233400450075e+01 1.2751673998777675e+00 1.0758669605245554e+01 0 -1 0
5109 444 1 4.1499999999999998e-01 1.7419418797086531e-01 6.0732017864987178e+00 1.0640216701541490e+01 -3 -1 0
2612 444 1 4.1499999999999998e-01 1.7631297304345219e+00 2.4467025753042120e+00 1.2895878910026831e+01 1 1 0
536 444 1 4.1499999999999998e-01 1.0725969093869569e+01 5.9325406663136082e+00 1.5121167455512268e+01 1 6 0
2624 444 1 4.1499999999999998e-01 1.0825435959242562e+01 6.3603901772568729e+00 1.0333368702981595e+01 -2 -2 0
5655 444 1 4.1499999999999998e-01 6.5909149443484534e+00 5.9585384015059639e-01 1.0256956196791378e+01 -2 3 0
3205 444 2 -8.2999999999999996e-01 1.5754370051822368e+00 1.2490325139411074e-01 1.6221837181373626e+01 0 2 0
2128 444 2 -8.2999999999999996e-01 1.1197132983585391e+01 2.5271738540463833e+00 1.3868893469229706e+01 -1 1 0
3206 444 1 4.1499999999999998e-01 6.6791992864459737e-01 3.0921509271028241e-01 1.5979610036275295e+01 0 2 0
4181 444 1 4.1499999999999998e-01 2.7792887164697833e+00 6.9421045781992963e-01 1.3248232241690742e+01 1 3 0
2611 444 2 -8.2999999999999996e-01 1.8737925444401649e+00 3.1761227728434784e+00 1.3505740996860391e+01 1 1 0
4182 444 1 4.1499999999999998e-01 2.3761016234073722e+00 2.9859104511059446e-02 1.1949011973207876e+01 1 3 0
4180 444 2 -8.2999999999999996e-01 2.0608379125137239e+00 2.1687909990524201e-01 1.2833243055611513e+01 1 3 0
5912 444 1 4.1499999999999998e-01 5.0873604231354115e+00 4.0065201112627025e-01 1.4164374260705360e+01 -5 3 0
535 444 2 -8.2999999999999996e-01 1.1363611556704670e+01 5.2202712921549406e+00 1.5169296555671758e+01 1 6 0
2311 444 2 -8.2999999999999996e-01 1.0802494801231072e+01 2.7868396178581056e+00 1.0921945251836499e+01 -3 2 0
713 444 1 4.1499999999999998e-01 1.9438617841117678e+00 7.4407578916728827e+00 1.1779708143336467e+01 0 0 0
993 444 1 4.1499999999999998e-01 1.2167058164510554e+00 6.7455488911596930e+00 1.5278744373491197e+01 0 4 0
1159 444 2 -8.2999999999999996e-01 9.5240893911300333e+00 7.3992665493395258e+00 1.6136062559787767e+01 0 4 0
1161 444 1 4.1499999999999998e-01 8.7077883689006939e+00 7.7400206709966231e+00 1.5770315195582468e+01 0 4 0
4112 444 1 4.1499999999999998e-01 5.0355202176888119e+00 1.1665365342455689e+00 1.7827049153291387e+01 3 1 0
4111 444 2 -8.2999999999999996e-01 5.9688743935956294e+00 1.2339413052254837e+00 1.7625707515294213e+01 3 1 0
4113 444 1 4.1499999999999998e-01 6.1821005926851402e+00 4.0565194774659696e-01 1.7195936391696254e+01 3 1 0
5605 444 2 -8.2999999999999996e-01 1.0430770585409508e+01 2.1824064392690948e-01 1.7391644954472206e+01 -1 -5 0
5505 444 1 4.1499999999999998e-01 2.6855046060933661e+00 8.7161560514318392e-01 1.7153795170100775e+01 3 0 0
2828 444 1 4.1499999999999998e-01 1.1300240918425432e+01 1.4133908029037576e+00 2.3395799526167288e+01 1 4 0
4933 444 2 -8.2999999999999996e-01 1.0717137413408441e+01 7.7856238578657440e+00 2.1448844107136676e+01 -2 2 0
2667 444 1 4.1499999999999998e-01 4.3929673291408733e+00 1.3821582347886541e+00 2.2794926684811291e+01 -2 -2 0
2228 444 1 4.1499999999999998e-01 6.8388796891831181e+00 2.3434238768454527e+00 2.2048526711025829e+01 2 -1 0
258 444 1 4.1499999999999998e-01 2.8305913558364248e+00 6.1567638889340941e+00 1.6312811877893846e+01 0 -4 0
2227 444 2 -8.2999999999999996e-01 7.0356852594340715e+00 2.8197319660851101e+00 2.2855143888335903e+01 2 -1 0
692 444 1 4.1499999999999998e-01 8.0109882841020248e+00 7.3749704410544936e+00 2.2539204984641785e+01 3 1 0
2229 444 1 4.1499999999999998e-01 7.9827018885888696e+00 2.9563531820266111e+00 2.2828196182527787e+01 2 -1 0
1127 444 1 4.1499999999999998e-01 3.6125512944439215e+00 3.7660898050753393e+00 1.6399650223020881e+01 -3 0 0
5504 444 1 4.1499999999999998e-01 3.2361189983773699e+00 2.1601257250865964e+00 1.7726910075618061e+01 3 0 0
5448 444 1 4.1499999999999998e-01 2.6737328631789263e+00 9.8613298520079185e-01 2.1147243315511218e+01 1 -2 0
1905 444 1 4.1499999999999998e-01 6.2749057448293009e+00 3.9659700101575490e+00 2.3708089807583701e+01 1 -3 0
5446 444 2 -8.2999999999999996e-01 3.5807244509758114e+00 8.5791499473923261e-01 2.0869469512098245e+01 1 -2 0
1903 444 2 -8.2999999999999996e-01 5.9755931901644592e+00 4.8515216714602785e+00 2.3914104714932495e+01 1 -3 0
5249 444 1 4.1499999999999998e-01 1.9114285065910233e+00 3.9705007367764020e+00 2.4097546826859944e+01 -1 3 0
3995 444 1 4.1499999999999998e-01 7.3894439233333351e+00 1.9721926823988658e+00 1.6934078325890816e+01 -3 7 0
2930 444 1 4.1499999999999998e-01 8.9146678219727473e+00 6.3182781435527664e+00 1.9130002521417442e+01 -1 1 0
746 444 1 4.1499999999999998e-01 1.8318555383641044e+00 4.3936766848784732e+00 2.0636387323248496e+01 -6 -1 0
2929 444 2 -8.2999999999999996e-01 8.5352963275131586e+00 6.7347775332353024e+00 1.8356156280780798e+01 -1 1 0
5607 444 1 4.1499999999999998e-01 1.0936430621505348e+01 6.0763240089425179e-02 1.6594311409385643e+01 -1 -5 0
2519 444 1 4.1499999999999998e-01 9.9208802374468910e+00 4.9111421661399479e+00 2.2854988933608102e+01 -1 4 0
3204 444 1 4.1499999999999998e-01 5.7477050609604676e+00 7.0971863026788249e+00 2.1619556371709699e+01 1 3 0
3202 444 2 -8.2999999999999996e-01 4.9135252740665347e+00 6.6372925015952688e+00 2.1713759197395337e+01 1 3 0
1312 444 2 -8.2999999999999996e-01 9.3497872453388506e+00 4.8395864093972607e+00 2.0217191595307412e+01 -3 -3 0
1313 444 1 4.1499999999999998e-01 8.5706967570391104e+00 4.3523751607764485e+00 1.9949096309006855e+01 -3 -3 0
3994 444 2 -8.2999999999999996e-01 8.0569360717335048e+00 2.5743136105366444e+00 1.6605235239253471e+01 -3 7 0
5836 444 2 -8.2999999999999996e-01 7.0917434914687165e+00 3.4600678184342741e+00 1.9145990358859571e+01 3 2 0
693 444 1 4.1499999999999998e-01 8.6859620072485058e+00 6.8609027071656055e+00 2.1285394753990431e+01 3 1 0
1501 444 2 -8.2999999999999996e-01 3.4320795960467843e+00 6.9666512364777899e+00 1.7838378696772004e+01 0 5 0
1503 444 1 4.1499999999999998e-01 3.6285686827868924e+00 6.5257861193603857e+00 1.8664975259365661e+01 0 5 0
2518 444 2 -8.2999999999999996e-01 9.4228610057176923e+00 4.9329797526287091e+00 2.3672137577228796e+01 -1 4 0
318 444 1 4.1499999999999998e-01 1.6844116170335157e+00 3.4027616030694041e+00 1.7823137227336918e+01 1 1 0
5838 444 1 4.1499999999999998e-01 7.0398373523278011e+00 3.0859874251156225e+00 1.8266443809531179e+01 3 2 0
1314 444 1 4.1499999999999998e-01 1.0075837603107525e+01 4.2354138422466319e+00 2.0062084375289576e+01 -3 -3 0
5525 444 1 4.1499999999999998e-01 4.0219854647650362e+00 5.3801314987426414e+00 2.3361190096649068e+01 1 1 0
1955 444 1 4.1499999999999998e-01 5.4767577992841563e+00 4.8564959896739790e+00 1.9220919336268373e+01 0 3 0
2931 444 1 4.1499999999999998e-01 7.6181480145652625e+00 6.8812017541338371e+00 1.8587739698560060e+01 -1 1 0
1954 444 2 -8.2999999999999996e-01 4.7591234344966438e+00 5.4439202645010383e+00 1.9457911983224164e+01 0 3 0
5524 444 2 -8.2999999999999996e-01 3.0790252904155624e+00 5.2163319109978010e+00 2.3376279138932645e+01 1 1 0
5526 444 1 4.1499999999999998e-01 2.7090494997485028e+00 5.8913784751815745e+00 2.2807366209447505e+01 1 1 0
2666 444 1 4.1499999999999998e-01 5.4928737244089998e+00 1.7985876643637637e+00 2.3748177798837688e+01 -2 -2 0
1956 444 1 4.1499999999999998e-01 4.1327938755640456e+00 4.8844968618810256e+00 1.9917246980494419e+01 0 3 0
3203 444 1 4.1499999999999998e-01 4.7933310653581378e+00 6.1847966806153103e+00 2.0878873557346036e+01 1 3 0
2665 444 2 -8.2999999999999996e-01 4.5403475046620230e+00 1.7589558937661929e+00 2.3662414286557020e+01 -2 -2 0
5837 444 1 4.1499999999999998e-01 6.8511929975115695e+00 2.7391808935190998e+00 1.9727961525456926e+01 3 2 0
2332 444 2 -8.2999999999999996e-01 1.0707870060556642e+01 2.3973872242896976e+00 1.9013535269093161e+01 2 0 0
1904 444 1 4.1499999999999998e-01 6.0030617288635257e+00 5.3149497095127156e+00 2.3077019408224871e+01 1 -3 0
745 444 2 -8.2999999999999996e-01 2.7569049048216825e+00 4.1707649079479445e+00 2.0532335172581725e+01 -6 -1 0
2334 444 1 4.1499999999999998e-01 1.0461697985277626e+01 1.8109018526345737e+00 1.8298226880496884e+01 2 0 0
317 444 1 4.1499999999999998e-01 2.7939018922967729e+00 4.1020380880067933e+00 1.8579403733094004e+01 1 1 0
747 444 1 4.1499999999999998e-01 2.8967612110295344e+00 3.4396959472310500e+00 2.1134174564288116e+01 -6 -1 0
2520 444 1 4.1499999999999998e-01 1.0089235254009532e+01 4.9369787171468182e+00 2.4359277573153090e+01 -1 4 0
2898 444 1 4.1499999999999998e-01 6.1169843444344396e-01 1.7070413391572579e+00 1.8811981629511205e+01 3 -1 0
691 444 2 -8.2999999999999996e-01 7.8857698710768638e+00 7.2856548440079330e+00 2.1594442827370177e+01 3 1 0
5503 444 2 -8.2999999999999996e-01 3.4035379476817806e+00 1.2186981079210775e+00 1.7683128507187661e+01 3 0 0
5447 444 1 4.1499999999999998e-01 3.5119787003304643e+00 4.6801567877446099e-01 1.9997985479144766e+01 1 -2 0
316 444 2 -8.2999999999999996e-01 2.6056058945025309e+00 3.6537168171487768e+00 1.7754913257315547e+01 1 1 0
4752 444 1 4.1499999999999998e-01 5.3888979336818696e+00 9.6157917214561184e-01 2.1041808214843861e+01 -1 0 0
2896 444 2 -8.2999999999999996e-01 3.5603798963978395e-01 2.4329719270612564e+00 1.8242864289220638e+01 3 -1 0
1543 444 2 -8.2999999999999996e-01 9.0526652437598654e-01 1.3979146594743177e+00 2.0994356292430172e+01 0 5 0
5628 444 1 4.1499999999999998e-01 9.6124514569286106e+00 5.5062113090551112e-01 2.0145347811525081e+01 0 -2 0
2829 444 1 4.1499999999999998e-01 1.0283217001340555e+01 7.1719662109426763e-01 2.2516668323479838e+01 1 4 0
3356 444 1 4.1499999999999998e-01 8.5859252246495235e+00 6.1640179539820341e+00 2.4248675514130653e+01 1 1 0
4750 444 2 -8.2999999999999996e-01 6.2697911868873319e+00 1.2731023475681800e+00 2.0833932621888376e+01 -1 0 0
1160 444 1 4.1499999999999998e-01 9.3324348812552707e+00 7.2617230243940138e+00 1.7063738316478105e+01 0 4 0
1545 444 1 4.1499999999999998e-01 6.4439314640973611e-01 2.2767127866256112e+00 2.1269839674594369e+01 0 5 0
5370 444 1 4.1499999999999998e-01 2.0317346492775474e+00 7.5769956817024982e+00 2.1302543391095316e+01 -4 -1 0
2827 444 2 -8.2999999999999996e-01 1.0500977261382815e+01 8.8800823424741082e-01 2.3432985247426611e+01 1 4 0
4751 444 1 4.1499999999999998e-01 6.7550492271735711e+00 4.8198922340012512e-01 2.0599632551295304e+01 -1 0 0
5626 444 2 -8.2999999999999996e-01 9.3444285472651742e+00 2.2897264160149158e-01 2.1006125319643751e+01 0 -2 0
4934 444 1 4.1499999999999998e-01 1.1128916592830345e+01 7.6106932076526093e+00 2.0602635387397111e+01 -2 2 0
1544 444 1 4.1499999999999998e-01 4.3715287605439918e-01 8.1130902570109464e-01 2.1588491534409819e+01 0 5 0
1502 444 1 4.1499999999999998e-01 4.2807185897607063e+00 7.2806592301775881e+00 1.7526220527708769e+01 0 5 0
5368 444 2 -8.2999999999999996e-01 1.7207098275764867e+00 7.4746131718901925e+00 2.2201995173245304e+01 -4 -1 0
2001 444 1 4.1499999999999998e-01 1.1105515907760479e+01 3.7284817663710119e+00 1.8039307070769528e+01 5 -2 0
5227 444 2 -8.2999999999999996e-01 4.8997197443271423e-01 1.8693274538965399e+00 3.0023509681449426e+01 5 2 0
592 444 2 -8.2999999999999996e-01 3.1677119979121016e-01 1.1168550950312399e+00 2.6116318638336942e+01 4 -1 0
593 444 1 4.1499999999999998e-01 5.5950347440555370e-01 1.7920121576568457e+00 2.6749940881473641e+01 4 -1 0
5033 444 1 4.1499999999999998e-01 6.0997988095380151e-02 4.6519233338237900e+00 3.0892682338676895e+01 -2 -6 0
4382 444 1 4.1499999999999998e-01 3.2246961603257853e+00 4.6745643854377067e-01 3.0375622510339923e+01 -6 -1 0
5667 444 1 4.1499999999999998e-01 1.0966744146811976e+01 2.2509336077854503e+00 3.2374010646502441e+01 1 -1 0
5123 444 1 4.1499999999999998e-01 2.3206857887792792e-01 5.7329428005038299e+00 2.7301991134411320e+01 0 3 0
3520 444 2 -8.2999999999999996e-01 9.8705461896420985e+00 5.9229860178231633e+00 3.0096765997386623e+01 1 -2 0
5248 444 2 -8.2999999999999996e-01 1.3840479619946726e+00 3.4181386207928020e+00 2.4674606367646042e+01 -1 3 0
5250 444 1 4.1499999999999998e-01 2.0243411452007360e+00 2.8968913879710643e+00 2.5158918062954566e+01 -1 3 0
984 444 1 4.1499999999999998e-01 1.0720646519669106e+01 7.0558097097108419e-01 2.8384386704879493e+01 -3 0 0
3522 444 1 4.1499999999999998e-01 9.7973929254991479e+00 5.0736132010465473e+00 2.9661511719656122e+01 1 -2 0
982 444 2 -8.2999999999999996e-01 1.1038104249374243e+01 1.3869185547459069e+00 2.7791738778063902e+01 -3 0 0
373 444 2 -8.2999999999999996e-01 1.5660676645957143e+00 2.9040300014603098e+00 2.7768172490972528e+01 4 12 0
5122 444 2 -8.2999999999999996e-01 1.0021551303338008e+00 5.6590579074002116e+00 2.7865675098747904e+01 0 3 0
374 444 1 4.1499999999999998e-01 2.4834154239269690e+00 2.8439652449376185e+00 2.7501529857450368e+01 4 12 0
5867 444 1 4.1499999999999998e-01 1.0917720928631409e+01 5.5731489735725015e+00 3.1535579080049352e+01 -6 0 0
3066 444 1 4.1499999999999998e-01 1.0312972509270391e+00 5.6652522137600982e+00 3.2098391153364545e+01 1 1 0
5124 444 1 4.1499999999999998e-01 1.7256271530267671e+00 5.9790414609365996e+00 2.7326758924794003e+01 0 3 0
1482 444 1 4.1499999999999998e-01 3.9954554851774247e+00 1.9954227850245669e+00 3.1792452273901262e+01 1 -2 0
1481 444 1 4.1499999999999998e-01 3.0549443994403278e+00 3.1585224935305565e+00 3.1558928679274171e+01 1 -2 0
1480 444 2 -8.2999999999999996e-01 3.1178172346793787e+00 2.3134979418554806e+00 3.2004139174372625e+01 1 -2 0
5198 444 1 4.1499999999999998e-01 5.8472308644198145e+00 1.2470929290505210e+00 3.0518216099461146e+01 -2 -1 0
4915 444 2 -8.2999999999999996e-01 6.5748047308740274e+00 5.2757627749471627e+00 2.9037806447746807e+01 0 0 0
3068 444 1 4.1499999999999998e-01 4.1126011627893527e-01 6.6004973782825633e+00 2.5130709000089340e+01 -2 -1 0
5234 444 1 4.1499999999999998e-01 4.0258351326120616e+00 2.3791156685486081e+00 2.5294831531935266e+01 -5 1 0
3965 444 1 4.1499999999999998e-01 9.9666136716629250e+00 2.3628892376497417e+00 2.8761576399499969e+01 3 5 0
4780 444 2 -8.2999999999999996e-01 2.7671880975570566e+00 6.3320107574235500e+00 2.5795277364811408e+01 3 5 0
4782 444 1 4.1499999999999998e-01 2.6547294046752437e+00 6.0410593662500709e+00 2.4890328633040767e+01 3 5 0
5233 444 2 -8.2999999999999996e-01 3.7438218020315750e+00 2.7895934647353613e+00 2.6112272261908398e+01 -5 1 0
597 444 1 4.1499999999999998e-01 7.0070212262380203e+00 5.7150407422169573e+00 3.1974582597599792e+01 4 2 0
4917 444 1 4.1499999999999998e-01 5.8638884421764264e+00 5.9076662840002214e+00 2.8930438504868373e+01 0 0 0
1890 444 1 4.1499999999999998e-01 4.4533497722657813e+00 7.7240434534185649e+00 2.9712406145206714e+01 1 4 0
3273 444 1 4.1499999999999998e-01 5.9712685963895069e+00 3.8862098839386374e+00 2.8286255597855227e+01 -1 -4 0
3271 444 2 -8.2999999999999996e-01 5.6707066903654102e+00 3.0205621364802995e+00 2.8009581637120803e+01 -1 -4 0
3966 444 1 4.1499999999999998e-01 9.7195883288626401e+00 2.8491445156975410e+00 3.0173819453828241e+01 3 5 0
3846 444 1 4.1499999999999998e-01 7.3399861385536740e+00 5.9479534677923940e-01 2.9157086097437368e+01 3 2 0
3678 444 1 4.1499999999999998e-01 5.9133800688412350e+00 5.0007919596206141e-01 2.6571081103498013e+01 0 3 0
4781 444 1 4.1499999999999998e-01 3.6877619665798629e+00 6.1573283374608723e+00 2.5990883257311484e+01 3 5 0
3272 444 1 4.1499999999999998e-01 6.0529764254973744e+00 2.4184279734248317e+00 2.8647967242437613e+01 -1 -4 0
3357 444 1 4.1499999999999998e-01 7.3115726937003291e+00 6.6472726597234004e+00 2.4907754972478916e+01 1 1 0
5235 444 1 4.1499999999999998e-01 4.5420855246597283e+00 2.8534796384983330e+00 2.6636606730558025e+01 -5 1 0
2153 444 1 4.1499999999999998e-01 5.5748032599292872e+00 5.8273301271481373e+00 2.5100531483366609e+01 2 6 0
2152 444 2 -8.2999999999999996e-01 5.8173767748109224e+00 6.5366869641430654e+00 2.5695680947248437e+01 2 6 0
2154 444 1 4.1499999999999998e-01 5.9245899145111860e+00 6.1104400614525636e+00 2.6546004865154785e+01 2 6 0
5228 444 1 4.1499999999999998e-01 1.0737030815847866e+00 2.3745787072114304e+00 2.9457637742538029e+01 5 2 0
3844 444 2 -8.2999999999999996e-01 7.2641190098244532e+00 1.4652609486097794e+00 2.9547940470395037e+01 3 2 0
3845 444 1 4.1499999999999998e-01 7.9471552093951496e+00 1.9810942633645900e+00 2.9119443245663959e+01 3 2 0
3964 444 2 -8.2999999999999996e-01 9.6331489021204622e+00 3.1108436401136643e+00 2.9257154675320979e+01 3 5 0
5032 444 2 -8.2999999999999996e-01 7.9691333461299629e-01 5.1532316391250932e+00 3.0541468709346638e+01 -2 -6 0
3355 444 2 -8.2999999999999996e-01 8.1523549163886617e+00 6.9549360586129163e+00 2.4569139607965418e+01 1 1 0
4916 444 1 4.1499999999999998e-01 7.0292722953811042e+00 5.5583714040307326e+00 2.9831420634998128e+01 0 0 0
3521 444 1 4.1499999999999998e-01 9.0082408181549116e+00 6.0681998012156830e+00 3.0486091407063693e+01 1 -2 0
5197 444 2 -8.2999999999999996e-01 5.0763572838777327e+00 7.0019238597679256e-01 3.0669495923752805e+01 -2 -1 0
5229 444 1 4.1499999999999998e-01 9.3705958503483289e-01 1.0313559388927560e+00 3.0142456277614961e+01 5 2 0
375 444 1 4.1499999999999998e-01 1.3404200353515825e+00 3.8261495791341096e+00 2.7645651889332676e+01 4 12 0
5034 444 1 4.1499999999999998e-01 6.7971213581006973e-01 5.1183980138721514e+00 2.9592109482026249e+01 -2 -6 0