LAMMPS data file via write_data, version 11 Aug 2017, timestep = 500000

7172 atoms
4 atom types
4000 bonds
1 bond types
2000 angles
1 angle types

0.0000000000000000e+00 4.5679949999999998e+01 xlo xhi
0.0000000000000000e+00 4.6885919999999999e+01 ylo yhi
0.0000000000000000e+00 6.5000000000000000e+01 zlo zhi

Masses

1 1.0079
2 15.9994
3 22.9898
4 107.868

Bond Coeffs # harmonic

1 450 0.9572

Angle Coeffs # harmonic

1 55 104.52

Atoms # full

6021 444 4 0.0000000000000000e+00 1.6907200000000000e+00 0.0000000000000000e+00 0.0000000000000000e+00 0 0 0
6022 444 4 0.0000000000000000e+00 4.2285000000000004e+00 1.4651900000000000e+00 0.0000000000000000e+00 0 0 0
6023 444 4 -6.9440000000000002e-02 1.6907700000000001e+00 0.0000000000000000e+00 7.1781499999999996e+00 0 0 0
6024 444 4 -6.9440000000000002e-02 4.2285500000000003e+00 1.4651900000000000e+00 7.1781499999999996e+00 0 0 0
6025 444 4 0.0000000000000000e+00 2.5366499999999998e+00 1.4651900000000000e+00 2.3926400000000001e+00 0 0 0
6026 444 4 0.0000000000000000e+00 5.0744199999999999e+00 0.0000000000000000e+00 2.3926400000000001e+00 0 0 0
6027 444 4 0.0000000000000000e+00 8.4509000000000001e-01 1.4651900000000000e+00 4.7824200000000001e+00 0 0 0
6028 444 4 0.0000000000000000e+00 3.3828600000000000e+00 0.0000000000000000e+00 4.7824499999999999e+00 0 0 0
6029 444 4 0.0000000000000000e+00 1.6907200000000000e+00 2.9303699999999999e+00 0.0000000000000000e+00 0 0 0
6030 444 4 0.0000000000000000e+00 4.2285000000000004e+00 4.3955599999999997e+00 0.0000000000000000e+00 0 0 0
6031 444 4 -6.9440000000000002e-02 1.6907700000000001e+00 2.9303699999999999e+00 7.1781899999999998e+00 0 0 0
6032 444 4 -6.9440000000000002e-02 4.2285500000000003e+00 4.3955599999999997e+00 7.1781600000000001e+00 0 0 0
6033 444 4 0.0000000000000000e+00 2.5366499999999998e+00 4.3955599999999997e+00 2.3926400000000001e+00 0 0 0
6034 444 4 0.0000000000000000e+00 5.0744199999999999e+00 2.9303699999999999e+00 2.3926400000000001e+00 0 0 0
6035 444 4 0.0000000000000000e+00 8.4509000000000001e-01 4.3955599999999997e+00 4.7824499999999999e+00 0 0 0
6036 444 4 0.0000000000000000e+00 3.3828700000000000e+00 2.9303699999999999e+00 4.7824400000000002e+00 0 0 0
6037 444 4 0.0000000000000000e+00 1.6907200000000000e+00 5.8607399999999998e+00 0.0000000000000000e+00 0 0 0
6038 444 4 0.0000000000000000e+00 4.2285000000000004e+00 7.3259299999999996e+00 0.0000000000000000e+00 0 0 0
6039 444 4 -6.9440000000000002e-02 1.6907700000000001e+00 5.8607399999999998e+00 7.1781499999999996e+00 0 0 0
6040 444 4 -6.9440000000000002e-02 4.2285500000000003e+00 7.3259299999999996e+00 7.1781499999999996e+00 0 0 0
6041 444 4 0.0000000000000000e+00 2.5366499999999998e+00 7.3259299999999996e+00 2.3926400000000001e+00 0 0 0
6042 444 4 0.0000000000000000e+00 5.0744199999999999e+00 5.8607399999999998e+00 2.3926400000000001e+00 0 0 0
6043 444 4 0.0000000000000000e+00 8.4509000000000001e-01 7.3259299999999996e+00 4.7824200000000001e+00 0 0 0
6044 444 4 0.0000000000000000e+00 3.3828600000000000e+00 5.8607399999999998e+00 4.7824499999999999e+00 0 0 0
6149 444 4 0.0000000000000000e+00 6.7662699999999996e+00 0.0000000000000000e+00 0.0000000000000000e+00 0 0 0
6151 444 4 -6.9440000000000002e-02 6.7663200000000003e+00 0.0000000000000000e+00 7.1781499999999996e+00 0 0 0
6153 444 4 0.0000000000000000e+00 7.6121999999999996e+00 1.4651900000000000e+00 2.3926400000000001e+00 0 0 0
6155 444 4 0.0000000000000000e+00 5.9206399999999997e+00 1.4651900000000000e+00 4.7824200000000001e+00 0 0 0
6157 444 4 0.0000000000000000e+00 6.7662699999999996e+00 2.9303699999999999e+00 0.0000000000000000e+00 0 0 0
6159 444 4 -6.9440000000000002e-02 6.7663200000000003e+00 2.9303699999999999e+00 7.1781899999999998e+00 0 0 0
6161 444 4 0.0000000000000000e+00 7.6121999999999996e+00 4.3955599999999997e+00 2.3926400000000001e+00 0 0 0
6163 444 4 0.0000000000000000e+00 5.9206399999999997e+00 4.3955599999999997e+00 4.7824499999999999e+00 0 0 0
6165 444 4 0.0000000000000000e+00 6.7662699999999996e+00 5.8607399999999998e+00 0.0000000000000000e+00 0 0 0
6167 444 4 -6.9440000000000002e-02 6.7663200000000003e+00 5.8607399999999998e+00 7.1781499999999996e+00 0 0 0
6169 444 4 0.0000000000000000e+00 7.6121999999999996e+00 7.3259299999999996e+00 2.3926400000000001e+00 0 0 0
6171 444 4 0.0000000000000000e+00 5.9206399999999997e+00 7.3259299999999996e+00 4.7824200000000001e+00 0 0 0
6150 444 4 0.0000000000000000e+00 9.3040500000000002e+00 1.4651900000000000e+00 0.0000000000000000e+00 0 0 0
6152 444 4 -6.9440000000000002e-02 9.3041000000000000e+00 1.4651900000000000e+00 7.1781499999999996e+00 0 0 0
6154 444 4 0.0000000000000000e+00 1.0149970000000000e+01 0.0000000000000000e+00 2.3926400000000001e+00 0 0 0
6156 444 4 0.0000000000000000e+00 8.4584100000000007e+00 0.0000000000000000e+00 4.7824499999999999e+00 0 0 0
6158 444 4 0.0000000000000000e+00 9.3040500000000002e+00 4.3955599999999997e+00 0.0000000000000000e+00 0 0 0
6160 444 4 -6.9440000000000002e-02 9.3041000000000000e+00 4.3955599999999997e+00 7.1781600000000001e+00 0 0 0
6162 444 4 0.0000000000000000e+00 1.0149970000000000e+01 2.9303699999999999e+00 2.3926400000000001e+00 0 0 0
6164 444 4 0.0000000000000000e+00 8.4584200000000003e+00 2.9303699999999999e+00 4.7824400000000002e+00 0 0 0
6166 444 4 0.0000000000000000e+00 9.3040500000000002e+00 7.3259299999999996e+00 0.0000000000000000e+00 0 0 0
6168 444 4 -6.9440000000000002e-02 9.3041000000000000e+00 7.3259299999999996e+00 7.1781499999999996e+00 0 0 0
6170 444 4 0.0000000000000000e+00 1.0149970000000000e+01 5.8607399999999998e+00 2.3926400000000001e+00 0 0 0
6172 444 4 0.0000000000000000e+00 8.4584100000000007e+00 5.8607399999999998e+00 4.7824499999999999e+00 0 0 0
6283 444 4 0.0000000000000000e+00 1.0996190000000000e+01 1.4651900000000000e+00 4.7824200000000001e+00 0 0 0
6291 444 4 0.0000000000000000e+00 1.0996190000000000e+01 4.3955599999999997e+00 4.7824499999999999e+00 0 0 0
6299 444 4 0.0000000000000000e+00 1.0996190000000000e+01 7.3259299999999996e+00 4.7824200000000001e+00 0 0 0
670 444 2 -8.2999999999999996e-01 5.0513913993151718e+00 4.6926784141555684e+00 1.5322084493192058e+01 3 1 0
671 444 1 4.1499999999999998e-01 5.9278214142094585e+00 4.3078498869903745e+00 1.5325138325749514e+01 3 1 0
672 444 1 4.1499999999999998e-01 4.4983549279962514e+00 4.0334191136866266e+00 1.5741321616252625e+01 3 1 0
2411 444 1 4.1499999999999998e-01 6.0711472282899885e+00 4.6539221838993674e+00 1.0131607166663569e+01 -2 0 0
2412 444 1 4.1499999999999998e-01 5.0767851280119727e+00 5.2370119849018559e+00 9.1502072054121992e+00 -2 0 0
2410 444 2 -8.2999999999999996e-01 5.1765638904723676e+00 4.9886808372683626e+00 1.0069232805324415e+01 -2 0 0
5918 444 1 4.1499999999999998e-01 9.5220362026573078e+00 6.5997645477029581e+00 1.5907997933953720e+01 0 2 0
5917 444 2 -8.2999999999999996e-01 9.8138303861163223e+00 5.7042942085461927e+00 1.6078939281057298e+01 0 2 0
5467 444 2 -8.2999999999999996e-01 9.8159721000234708e+00 5.1994152786803696e+00 1.3358873691036566e+01 -2 1 0
5366 444 1 4.1499999999999998e-01 3.7204917888223679e+00 4.5878102537718233e+00 1.3704763268773878e+01 4 -3 0
5469 444 1 4.1499999999999998e-01 1.0473324920991571e+01 5.4272084943693963e+00 1.2701432094243904e+01 -2 1 0
5919 444 1 4.1499999999999998e-01 9.9740458270384025e+00 5.3342504232274370e+00 1.5210820318833541e+01 0 2 0
2274 444 1 4.1499999999999998e-01 7.5092512110846936e+00 7.1405880837842854e+00 1.1247843517136829e+01 1 3 0
2272 444 2 -8.2999999999999996e-01 7.8179483757312127e+00 6.3900152991543919e+00 1.1755365386767027e+01 1 3 0
2273 444 1 4.1499999999999998e-01 7.5415230135162146e+00 5.6270312692646671e+00 1.1247746316503722e+01 1 3 0
5365 444 2 -8.2999999999999996e-01 3.2815346034922568e+00 3.8421969113066807e+00 1.3295362217106838e+01 4 -3 0
5367 444 1 4.1499999999999998e-01 3.9766385775131186e+00 3.1975754492640349e+00 1.3162978030737962e+01 4 -3 0
3411 444 1 4.1499999999999998e-01 6.2261975970309198e+00 2.5735568855326556e+00 1.3645048408840099e+01 -1 1 0
1067 444 1 4.1499999999999998e-01 8.4906323816535778e+00 3.8279809810241225e+00 1.0001951486775802e+01 3 -1 0
3409 444 2 -8.2999999999999996e-01 5.3997255264813662e+00 2.4393307619164086e+00 1.3181194686495768e+01 -1 1 0
1066 444 2 -8.2999999999999996e-01 7.6799977030013276e+00 4.0891977330108693e+00 1.0438837568400706e+01 3 -1 0
1068 444 1 4.1499999999999998e-01 7.2760583389313043e+00 3.2643135456632550e+00 1.0708339600636167e+01 3 -1 0
5420 444 1 4.1499999999999998e-01 1.0401361210713938e+01 2.2949481949305230e+00 1.0009771858788630e+01 1 3 0
5468 444 1 4.1499999999999998e-01 9.0903130105827348e+00 5.8006493618473005e+00 1.3191039257973461e+01 -2 1 0
2297 444 1 4.1499999999999998e-01 9.0687869362942486e+00 1.8087507861645602e+00 1.2807229289013168e+01 4 5 0
3275 444 1 4.1499999999999998e-01 7.6302529034687359e+00 7.4765291821349216e+00 1.3449976600121914e+01 1 2 0
5568 444 1 4.1499999999999998e-01 4.4839527433505868e+00 6.0365990129868941e+00 1.1320604845570239e+01 0 -1 0
4956 444 1 4.1499999999999998e-01 3.4032481151600082e+00 4.0605580492658744e+00 9.9445421714677043e+00 5 -2 0
1055 444 1 4.1499999999999998e-01 1.7237857582313015e-01 4.4565960717526556e+00 9.2686158061108177e+00 3 3 0
1386 444 1 4.1499999999999998e-01 8.2685678352070919e+00 3.6532573870805050e+00 1.5001061875193740e+01 -2 -3 0
5567 444 1 4.1499999999999998e-01 3.4479510648423042e+00 7.1367395876667015e+00 1.1411635117996747e+01 0 -1 0
369 444 1 4.1499999999999998e-01 1.0683971895993405e+01 3.4089251260576878e+00 1.3012362026310059e+01 2 3 0
1054 444 2 -8.2999999999999996e-01 1.7928584360888636e-01 5.0551016763913230e+00 1.0015593719634067e+01 3 3 0
4599 444 1 4.1499999999999998e-01 1.0350020436867110e+01 7.1015014339415767e+00 1.0896103484470359e+01 -1 -3 0
114 444 1 4.1499999999999998e-01 1.0585803870209364e+01 1.1445114591757917e+00 1.3706690581253570e+01 5 2 0
4955 444 1 4.1499999999999998e-01 2.9722274716292252e+00 4.1406451178719834e+00 1.1393577232230587e+01 5 -2 0
1056 444 1 4.1499999999999998e-01 9.2972998228511006e-01 4.7757357731475478e+00 1.0540018168175035e+01 3 3 0
5432 444 1 4.1499999999999998e-01 3.6738299389338031e-01 6.7887045051187993e+00 1.3098908084934397e+01 3 -2 0
5117 444 1 4.1499999999999998e-01 5.0208193942011388e+00 6.4887287378713472e+00 1.4553069197864023e+01 0 -4 0
5566 444 2 -8.2999999999999996e-01 4.2804096994096952e+00 6.8480768494092663e+00 1.1785691741525889e+01 0 -1 0
367 444 2 -8.2999999999999996e-01 1.0657615821787411e+01 2.4966010698488557e+00 1.2723914395898559e+01 2 3 0
4954 444 2 -8.2999999999999996e-01 2.6757313577701018e+00 3.8517780627530205e+00 1.0530513771956256e+01 5 -2 0
1385 444 1 4.1499999999999998e-01 7.4162888942709975e+00 2.6742351972281537e+00 1.5780184792891518e+01 -2 -3 0
1384 444 2 -8.2999999999999996e-01 7.3674285116308091e+00 3.3460638969873684e+00 1.5100117213822381e+01 -2 -3 0
4324 444 2 -8.2999999999999996e-01 1.8204580884067332e+00 7.6910109907657516e+00 1.4865915299111487e+01 4 -2 0
368 444 1 4.1499999999999998e-01 1.0828364106316069e+01 2.5373793136540352e+00 1.1782949976561328e+01 2 3 0
5118 444 1 4.1499999999999998e-01 4.4848028416092109e+00 7.2643818608540318e+00 1.3368609906487050e+01 0 -4 0
3607 444 2 -8.2999999999999996e-01 7.8105522207524938e-02 3.4674345593272499e-01 1.5185381065472088e+01 0 -4 0
3410 444 1 4.1499999999999998e-01 5.6585692149335651e+00 2.1149575341654576e+00 1.2318632055293465e+01 -1 1 0
5116 444 2 -8.2999999999999996e-01 4.6313706384241060e+00 7.3293161847517156e+00 1.4312290649180666e+01 0 -4 0
5421 444 1 4.1499999999999998e-01 1.0827819252747410e+01 3.6393386452245222e+00 9.4596414289833337e+00 1 3 0
1708 444 2 -8.2999999999999996e-01 1.2792477811197149e+00 1.7305667242699134e+00 1.0662670454692131e+01 2 -1 0
1709 444 1 4.1499999999999998e-01 1.7446390299754218e+00 2.5594854666083564e+00 1.0550703405570465e+01 2 -1 0
2296 444 2 -8.2999999999999996e-01 8.1868639058553345e+00 1.5993289013995935e+00 1.2499678859756706e+01 4 5 0
1710 444 1 4.1499999999999998e-01 1.3648484488225952e+00 1.2911008417728660e+00 9.8166360977982077e+00 2 -1 0
233 444 1 4.1499999999999998e-01 4.1260165603242447e+00 3.2834126425865018e-01 1.3283327839422777e+01 2 -4 0
3653 444 1 4.1499999999999998e-01 1.0142202675489596e+00 1.6074481644104384e+00 1.2513449059298608e+01 -5 2 0
748 444 2 -8.2999999999999996e-01 1.4160129305843866e-01 3.8247910381357739e+00 1.4790718221303301e+01 0 -2 0
5419 444 2 -8.2999999999999996e-01 1.0986041807412976e+01 3.0327626504509828e+00 1.0183010894122148e+01 1 3 0
4961 444 1 4.1499999999999998e-01 9.2199842402763448e+00 4.8389675872826587e-01 9.9751971175673049e+00 3 2 0
112 444 2 -8.2999999999999996e-01 1.0597751981981482e+01 4.9806947794019635e-01 1.4412524750585021e+01 5 2 0
4962 444 1 4.1499999999999998e-01 8.1798550323693568e+00 1.4365215504425153e+00 9.4251673682864023e+00 3 2 0
749 444 1 4.1499999999999998e-01 6.0691921628893641e-01 3.2042055458184224e+00 1.4229839668146081e+01 0 -2 0
2298 444 1 4.1499999999999998e-01 8.2466251969123245e+00 1.6516295134963914e+00 1.1545778425568949e+01 4 5 0
2577 444 1 4.1499999999999998e-01 5.5455769921479767e+00 1.6414360260507435e+00 9.4932050959765792e+00 -2 2 0
4326 444 1 4.1499999999999998e-01 1.5881896445998793e+00 6.7913536157348950e+00 1.4635914822940826e+01 4 -2 0
1481 444 1 4.1499999999999998e-01 1.6280986379539131e+00 7.3014638287108786e+00 9.7569281825658436e+00 0 4 0
3608 444 1 4.1499999999999998e-01 5.5090625256437076e-01 9.0834382143846171e-01 1.4571136460260234e+01 0 -4 0
3652 444 2 -8.2999999999999996e-01 1.2856516786019625e+00 1.9365684581902025e+00 1.3370325183828328e+01 -5 2 0
4325 444 1 4.1499999999999998e-01 2.7732309278758347e+00 7.6771258720641873e+00 1.4956820126539302e+01 4 -2 0
4960 444 2 -8.2999999999999996e-01 8.9555407627797319e+00 1.4037911358526654e+00 9.9850537136291706e+00 3 2 0
4597 444 2 -8.2999999999999996e-01 1.0862562154419209e+01 6.3706063912922639e+00 1.1241539909887919e+01 -1 -3 0
1480 444 2 -8.2999999999999996e-01 2.0364823547374180e+00 7.7671996904295320e+00 1.0486684835567409e+01 0 4 0
2576 444 1 4.1499999999999998e-01 5.9458046303667800e+00 5.1017249954659682e-01 1.0416219775860313e+01 -2 2 0
3654 444 1 4.1499999999999998e-01 1.9542570494655738e+00 2.5929613830723697e+00 1.3174501093268457e+01 -5 2 0
2575 444 2 -8.2999999999999996e-01 5.8580665526454503e+00 1.4626598822288057e+00 1.0380122076127677e+01 -2 2 0
2487 444 1 4.1499999999999998e-01 5.7625400516178074e+00 7.8005855176234400e+00 9.2845209820701697e+00 2 -2 0
4305 444 1 4.1499999999999998e-01 4.2241126584787230e+00 2.9864050961782267e+00 1.7515643507812381e+01 2 -1 0
4631 444 1 4.1499999999999998e-01 2.0077147804881532e+00 2.4244803831448036e-01 1.7792564402046011e+01 4 -1 0
4303 444 2 -8.2999999999999996e-01 3.6869269512141627e+00 2.9689876406273363e+00 1.6723582867523938e+01 2 -1 0
5689 444 2 -8.2999999999999996e-01 6.8364133237198859e+00 1.2992274429948549e+00 1.6657756972545961e+01 4 2 0
5690 444 1 4.1499999999999998e-01 7.6061632320607639e+00 7.4133240498150721e-01 1.6769426659229548e+01 4 2 0
4320 444 1 4.1499999999999998e-01 4.6476521737487051e+00 5.9964504392907090e+00 1.6665315120477334e+01 -1 -1 0
5579 444 1 4.1499999999999998e-01 9.6102417786083301e+00 4.0180857998331049e-01 1.6494678834820821e+01 0 0 0
34 444 2 -8.2999999999999996e-01 2.0577935786769790e+00 4.4319941016182645e+00 2.1398003810913419e+01 4 -4 0
4600 444 2 -8.2999999999999996e-01 1.7211415513873458e+00 4.3144775275804976e+00 1.8550517874661139e+01 0 4 0
4304 444 1 4.1499999999999998e-01 3.1648928010410740e+00 2.1708290541595674e+00 1.6805161798285216e+01 2 -1 0
218 444 1 4.1499999999999998e-01 4.0882587872510863e+00 1.1751959282304547e+00 2.0062123211683861e+01 2 5 0
2735 444 1 4.1499999999999998e-01 4.7835736886234539e+00 5.6832403399173499e+00 2.1822475612596374e+01 1 4 0
2734 444 2 -8.2999999999999996e-01 4.0248695488983532e+00 6.2369266810057518e+00 2.1637999575116066e+01 1 4 0
4632 444 1 4.1499999999999998e-01 1.6882273606366087e+00 5.2241209733764349e-01 1.6339483775306100e+01 4 -1 0
4953 444 1 4.1499999999999998e-01 2.4548942595479235e+00 1.4699574899051127e-01 2.3382372080403123e+01 -1 2 0
3474 444 1 4.1499999999999998e-01 8.0805194219058585e+00 4.2261513323822104e+00 1.8115202471274074e+01 4 -3 0
3472 444 2 -8.2999999999999996e-01 9.0264502714647747e+00 4.0895770546124650e+00 1.8062342082669250e+01 4 -3 0
3473 444 1 4.1499999999999998e-01 9.3179313566186046e+00 4.6914843277771823e+00 1.7377522156120563e+01 4 -3 0
4951 444 2 -8.2999999999999996e-01 1.6492266362627352e+00 1.7371472542665556e-01 2.3898528678494500e+01 -1 2 0
219 444 1 4.1499999999999998e-01 4.9908370814227476e+00 2.0089289050769636e+00 2.0946508274896935e+01 2 5 0
217 444 2 -8.2999999999999996e-01 4.5228143563775989e+00 1.1745464055250572e+00 2.0914996840460635e+01 2 5 0
3024 444 1 4.1499999999999998e-01 1.0712278248964406e+01 4.6044728408050402e+00 2.2058508838872747e+01 -2 2 0
3022 444 2 -8.2999999999999996e-01 1.0027997166127850e+01 4.9745326206890272e+00 2.2616225485991080e+01 -2 2 0
3372 444 1 4.1499999999999998e-01 2.7738924614702136e+00 7.0772731420913608e+00 1.9780148840092465e+01 -1 0 0
2024 444 1 4.1499999999999998e-01 6.8460444616050182e+00 4.0824394830747686e+00 2.1864864759334992e+01 0 -1 0
3370 444 2 -8.2999999999999996e-01 2.4721216795529264e+00 6.8821937944609228e+00 1.8892956221111447e+01 -1 0 0
3784 444 2 -8.2999999999999996e-01 8.5271273001809611e+00 6.9012312831007989e+00 2.0884525438178674e+01 -1 2 0
3371 444 1 4.1499999999999998e-01 3.2706895882477824e+00 6.8686875177563858e+00 1.8365376689901854e+01 -1 0 0
4318 444 2 -8.2999999999999996e-01 4.7237301653699850e+00 6.2745224469182856e+00 1.7578069197633948e+01 -1 -1 0
3159 444 1 4.1499999999999998e-01 7.3191067707308752e+00 6.3509299588847874e+00 1.8782624712082281e+01 1 3 0
363 444 1 4.1499999999999998e-01 8.9207479280267208e+00 2.6644584719156383e+00 1.9069574090198291e+01 -1 1 0
361 444 2 -8.2999999999999996e-01 8.9374372330851362e+00 1.8423780500240072e+00 1.9559611973340782e+01 -1 1 0
3157 444 2 -8.2999999999999996e-01 6.9170434475142706e+00 5.5129192068235930e+00 1.9011349310851745e+01 1 3 0
3158 444 1 4.1499999999999998e-01 6.8712180089748163e+00 5.5217303805976616e+00 1.9967411154634799e+01 1 3 0
5691 444 1 4.1499999999999998e-01 6.0970817272035305e+00 6.9126581693763212e-01 1.6659600522574760e+01 4 2 0
2118 444 1 4.1499999999999998e-01 4.3935376542095907e+00 2.2708000095759258e+00 2.3798508929542180e+01 -3 4 0
564 444 1 4.1499999999999998e-01 8.1834334973133416e+00 2.4113542417478127e+00 2.1116076113608237e+01 -3 1 0
2117 444 1 4.1499999999999998e-01 4.5723539894973753e+00 1.1805942599644930e+00 2.2763438157947011e+01 -3 4 0
563 444 1 4.1499999999999998e-01 8.0106721292750045e+00 1.9426183265655925e+00 2.2545179196302136e+01 -3 1 0
562 444 2 -8.2999999999999996e-01 7.7244637127168110e+00 2.6180220949837798e+00 2.1930243019252806e+01 -3 1 0
3603 444 1 4.1499999999999998e-01 6.1736625485493875e+00 2.3083053277800163e+00 1.8181565254694952e+01 -3 -2 0
3601 444 2 -8.2999999999999996e-01 5.6176718166522965e+00 2.9801516909609180e+00 1.8576190365332494e+01 -3 -2 0
3602 444 1 4.1499999999999998e-01 6.2293094293820239e+00 3.6542062862561506e+00 1.8872470213930324e+01 -3 -2 0
2023 444 2 -8.2999999999999996e-01 6.3719414005617416e+00 4.8778139421957087e+00 2.2107429447589670e+01 0 -1 0
3023 444 1 4.1499999999999998e-01 9.4383197699180599e+00 5.4208208254873229e+00 2.2008492468469640e+01 -2 2 0
362 444 1 4.1499999999999998e-01 8.8783520478172324e+00 1.1619693929083637e+00 1.8888951952205947e+01 -1 1 0
4319 444 1 4.1499999999999998e-01 5.5099730605179085e+00 5.8327262648599802e+00 1.7898803049189763e+01 -1 -1 0
35 444 1 4.1499999999999998e-01 1.2303250931404912e+00 4.7228930590572320e+00 2.1781286976515826e+01 4 -4 0
2025 444 1 4.1499999999999998e-01 7.0196555803915581e+00 5.4127971910890915e+00 2.2566222555807325e+01 0 -1 0
3786 444 1 4.1499999999999998e-01 8.3784486278714656e+00 7.7649475058921142e+00 2.1269390686343939e+01 -1 2 0
2736 444 1 4.1499999999999998e-01 3.2898783171169996e+00 5.6262256944633622e+00 2.1582645102789940e+01 1 4 0
1446 444 1 4.1499999999999998e-01 5.1875058466012247e-01 3.1044964207032315e+00 1.8231354097193947e+01 4 -2 0
1403 444 1 4.1499999999999998e-01 9.0087589267354780e+00 4.4570875544468276e+00 2.4258680055946922e+01 3 -2 0
36 444 1 4.1499999999999998e-01 1.8415204207990825e+00 4.2250702475494366e+00 2.0488805612907058e+01 4 -4 0
4602 444 1 4.1499999999999998e-01 2.0694486556329372e+00 4.2338699489009057e+00 1.7662589690209245e+01 0 4 0
2116 444 2 -8.2999999999999996e-01 4.4536600453494728e+00 1.3202841217909449e+00 2.3702922466065385e+01 -3 4 0
4601 444 1 4.1499999999999998e-01 1.8627580530172874e+00 5.2325481398302180e+00 1.8781435583540201e+01 0 4 0
3389 444 1 4.1499999999999998e-01 9.8991074121909417e+00 7.2140877787677091e+00 2.3489516455710074e+01 -1 0 0
291 444 1 4.1499999999999998e-01 1.0313825843209452e+01 1.0378095701931973e+00 2.0278888754222081e+01 -1 0 0
289 444 2 -8.2999999999999996e-01 1.1149122323029003e+01 5.8721407073736687e-01 2.0403288954308991e+01 -1 0 0
2740 444 2 -8.2999999999999996e-01 1.0741513951252363e+01 7.6068158957881629e+00 1.8990547502921714e+01 -1 1 0
3785 444 1 4.1499999999999998e-01 9.0563409820487539e+00 7.0733938774826397e+00 2.0105727934025598e+01 -1 2 0
5949 444 1 4.1499999999999998e-01 2.7367164425314252e+00 7.4693570063726469e+00 2.2722819612220412e+01 -2 0 0
1045 444 2 -8.2999999999999996e-01 1.5665178942225062e+00 4.5299509471751627e+00 2.4264164292580254e+01 4 -2 0
4142 444 1 4.1499999999999998e-01 1.0883393457915423e+01 3.8749517379998459e+00 1.8337311982936718e+01 0 2 0
1046 444 1 4.1499999999999998e-01 6.7143472032184959e-01 4.8113476189564572e+00 2.4074757875802547e+01 4 -2 0
1047 444 1 4.1499999999999998e-01 1.9810144458191208e+00 4.4535984194467853e+00 2.3404748814997426e+01 4 -2 0
4630 444 2 -8.2999999999999996e-01 2.2208903000139610e+00 8.3427497572202558e-01 1.7071087430527456e+01 4 -1 0
197 444 1 4.1499999999999998e-01 4.2939835448530411e-01 7.6888413638568043e+00 2.3565136442564953e+01 1 -3 0
5578 444 2 -8.2999999999999996e-01 8.9962131706124460e+00 9.0572395242530801e-02 1.7159759857992796e+01 0 0 0
2742 444 1 4.1499999999999998e-01 1.1161335785255542e+01 7.0224720292536409e+00 1.8359259956789607e+01 -1 1 0
2328 444 1 4.1499999999999998e-01 5.5450937903054154e-01 3.0907195962632428e+00 2.8522167299518909e+01 4 4 0
1338 444 1 4.1499999999999998e-01 1.3026761609522290e+00 3.6366163179849318e+00 3.0230505219951116e+01 0 1 0
5844 444 1 4.1499999999999998e-01 5.4865146167024275e+00 3.4714699572728014e-01 2.6504038351913820e+01 2 -1 0
2327 444 1 4.1499999999999998e-01 3.0224205108692515e-01 1.5982935497691693e+00 2.8552518566126739e+01 4 4 0
4270 444 2 -8.2999999999999996e-01 7.0720679405762956e+00 6.2891531976288633e+00 2.7712611684108300e+01 3 -3 0
4952 444 1 4.1499999999999998e-01 1.7370421240742824e+00 9.5811245023812996e-01 2.4440045570330021e+01 -1 2 0
2150 444 1 4.1499999999999998e-01 7.6420056255739466e+00 5.2744185871295479e-02 2.8016906186383235e+01 -2 5 0
2326 444 2 -8.2999999999999996e-01 8.5642781024852099e-01 2.2641825494617596e+00 2.8145452800748835e+01 4 4 0
4271 444 1 4.1499999999999998e-01 7.1010448215573208e+00 5.3330393034233312e+00 2.7677402793713178e+01 3 -3 0
1284 444 1 4.1499999999999998e-01 9.5042517022103326e+00 1.4990250748734588e+00 3.2294036582574115e+01 1 3 0
5205 444 1 4.1499999999999998e-01 9.5268771202917772e+00 6.5506202821259896e+00 2.9813786579821492e+01 0 2 0
3029 444 1 4.1499999999999998e-01 4.5420565047871264e+00 7.6670616500813731e+00 2.9709534002119753e+01 1 3 0
2149 444 2 -8.2999999999999996e-01 6.8259701848342198e+00 5.4705422062238540e-01 2.7939594644523300e+01 -2 5 0
1500 444 1 4.1499999999999998e-01 9.7748485491869204e+00 4.2953004877741661e+00 3.0801344914477855e+01 2 2 0
781 444 2 -8.2999999999999996e-01 7.9225696919256912e+00 1.3873683831263726e+00 3.1246887757329784e+01 1 1 0
3383 444 1 4.1499999999999998e-01 4.3936128800641834e+00 9.2663888178502740e-01 3.0063642535376513e+01 -2 0 0
2151 444 1 4.1499999999999998e-01 7.0910114732698020e+00 1.4627879815227274e+00 2.8025716983791312e+01 -2 5 0
1499 444 1 4.1499999999999998e-01 1.0943823075502454e+01 3.3348585234570627e+00 3.0855613520735638e+01 2 2 0
5025 444 1 4.1499999999999998e-01 1.6266360129444708e+00 5.7114391493271279e+00 2.5854457439822436e+01 -5 4 0
2600 444 1 4.1499999999999998e-01 2.1150085863610482e+00 2.0245973473160630e+00 2.6531432034956300e+01 3 -2 0
864 444 1 4.1499999999999998e-01 3.0879336486666857e+00 6.5768990913365606e+00 2.8311555861690525e+01 2 -1 0
5024 444 1 4.1499999999999998e-01 1.0844768306101249e+00 5.7810465976628178e+00 2.7266234201671267e+01 -5 4 0
5843 444 1 4.1499999999999998e-01 4.7026839083177849e+00 6.1517189343058676e-01 2.5236888524333640e+01 2 -1 0
3683 444 1 4.1499999999999998e-01 1.0544273111057665e+01 2.5038686002064399e+00 2.8498037769068176e+01 -2 1 0
2599 444 2 -8.2999999999999996e-01 2.1826088175440987e+00 2.0526287635655116e+00 2.5577033460904367e+01 3 -2 0
3717 444 1 4.1499999999999998e-01 4.1847500715596562e+00 3.9992454929639916e+00 2.8068885124035667e+01 -1 -4 0
1336 444 2 -8.2999999999999996e-01 2.0605558529841379e+00 4.2211536641261409e+00 3.0217596713536988e+01 0 1 0
5203 444 2 -8.2999999999999996e-01 1.0135122103801553e+01 6.9228880319522341e+00 2.9175282830063335e+01 0 2 0
3649 444 2 -8.2999999999999996e-01 8.0573777555918014e+00 5.5003672260921430e+00 3.0691634114107853e+01 -1 -2 0
298 444 2 -8.2999999999999996e-01 4.5938110383608466e+00 6.3640741570544934e+00 3.2320105860257570e+01 4 1 0
3684 444 1 4.1499999999999998e-01 1.0422040968681571e+01 3.6377860072003778e+00 2.7502454599222059e+01 -2 1 0
299 444 1 4.1499999999999998e-01 4.4493536208358817e+00 6.9213457283875659e+00 3.1555375149340339e+01 4 1 0
1337 444 1 4.1499999999999998e-01 2.8151227595627519e+00 3.6375596204760461e+00 3.0296836555785891e+01 0 1 0
2601 444 1 4.1499999999999998e-01 2.0194015804709604e+00 2.9684956966591503e+00 2.5351681693238334e+01 3 -2 0
3650 444 1 4.1499999999999998e-01 7.4210094026236311e+00 4.8558691141028874e+00 3.1001296610649717e+01 -1 -2 0
1402 444 2 -8.2999999999999996e-01 8.5629993592279003e+00 4.4172222145349380e+00 2.5104813102612827e+01 3 -2 0
4272 444 1 4.1499999999999998e-01 7.4614536720687124e+00 6.5100575051346663e+00 2.8558668518190423e+01 3 -3 0
3651 444 1 4.1499999999999998e-01 8.5168105084773309e+00 5.7830711267597872e+00 3.1482350495027127e+01 -1 -2 0
3716 444 1 4.1499999999999998e-01 5.6605713117821743e+00 3.6639939078899841e+00 2.8030760101069379e+01 -1 -4 0
3384 444 1 4.1499999999999998e-01 4.4112208742921180e+00 2.3479468423104377e+00 2.9542615759402700e+01 -2 0 0
5853 444 1 4.1499999999999998e-01 5.9423433186513739e+00 3.5124243745618604e+00 3.0554943997940551e+01 -2 2 0
3682 444 2 -8.2999999999999996e-01 9.9217752425564196e+00 2.9301855649903108e+00 2.7908985897330322e+01 -2 1 0
5852 444 1 4.1499999999999998e-01 5.4924780127673998e+00 3.4287696629835094e+00 3.1998037409624047e+01 -2 2 0
3382 444 2 -8.2999999999999996e-01 3.9455385141621488e+00 1.7685059204296196e+00 3.0145624943914761e+01 -2 0 0
862 444 2 -8.2999999999999996e-01 3.2921485689328107e+00 6.4970502660901337e+00 2.9243302995660205e+01 2 -1 0
300 444 1 4.1499999999999998e-01 5.1544125848228077e+00 5.6574712739109625e+00 3.1999682488285263e+01 4 1 0
3165 444 1 4.1499999999999998e-01 3.2271077719422250e+00 7.3067085953294786e+00 2.5955765564405251e+01 -4 1 0
195 444 1 4.1499999999999998e-01 3.7793646760678672e+00 2.0616592112851837e+00 3.1775329086203826e+01 2 2 0
3715 444 2 -8.2999999999999996e-01 4.8530116897791711e+00 3.4729340186594637e+00 2.8507809582788255e+01 -1 -4 0
5851 444 2 -8.2999999999999996e-01 5.9978697998780275e+00 3.9716310831150463e+00 3.1392964376281952e+01 -2 2 0
4289 444 1 4.1499999999999998e-01 7.7196289085371701e+00 3.9738283648259385e+00 2.6450556504464824e+01 -3 1 0
4288 444 2 -8.2999999999999996e-01 7.4710432133237097e+00 3.7857695259632349e+00 2.7355581922713888e+01 -3 1 0
4290 444 1 4.1499999999999998e-01 8.2686544608691666e+00 3.4406749263917509e+00 2.7756777602026659e+01 -3 1 0
1404 444 1 4.1499999999999998e-01 8.5827289867754377e+00 5.3175942323449439e+00 2.5429116732570371e+01 3 -2 0
5204 444 1 4.1499999999999998e-01 1.0308050086766196e+01 6.2075736121619594e+00 2.8563193364589257e+01 0 2 0
5023 444 2 -8.2999999999999996e-01 1.7513175180506848e+00 6.1576891043944970e+00 2.6692042094323458e+01 -5 4 0
5072 444 1 4.1499999999999998e-01 1.9615129563570806e+00 4.9165667347462492e+00 3.2004926347179875e+01 1 -2 0
1534 444 2 -8.2999999999999996e-01 8.6561872731487437e+00 7.0795724623984766e+00 2.5826277019392993e+01 1 2 0
863 444 1 4.1499999999999998e-01 2.6660389970848515e+00 5.8518186629091407e+00 2.9571777607970596e+01 2 -1 0
3967 444 2 -8.2999999999999996e-01 1.1402347150771371e+01 5.0647661726727655e+00 2.7366580785625576e+01 -1 0 0
1498 444 2 -8.2999999999999996e-01 1.0380320840597440e+01 3.8735388914317848e+00 3.1411060034300103e+01 2 2 0
782 444 1 4.1499999999999998e-01 7.0536592147601507e+00 1.0229742917802915e+00 3.1078234880569283e+01 1 1 0
1536 444 1 4.1499999999999998e-01 7.9664756407937398e+00 6.9837192288927072e+00 2.6483043273607382e+01 1 2 0
783 444 1 4.1499999999999998e-01 8.4530625934618531e+00 1.0960140615648037e+00 3.0505320592886655e+01 1 1 0
3617 444 1 4.1499999999999998e-01 5.3396530130042876e+00 7.1594269510416861e+00 3.3840168552584615e+01 2 6 0
813 444 1 4.1499999999999998e-01 9.8751559354038729e+00 6.9447952957141066e+00 3.5786979688053847e+01 -5 3 0
4830 444 1 4.1499999999999998e-01 1.0185669260203952e+01 5.3552544857641688e+00 3.2571256734273746e+01 0 -2 0
4829 444 1 4.1499999999999998e-01 9.8303220956853501e+00 6.5604421140909217e+00 3.3415738285475364e+01 0 -2 0
4742 444 1 4.1499999999999998e-01 8.5596022072124078e-02 2.6291665752244495e+00 3.3829758612318557e+01 2 -3 0
811 444 2 -8.2999999999999996e-01 9.5806309009545831e+00 7.1604067862519205e+00 3.4902107341049316e+01 -5 3 0