LAMMPS data file via write_data, version 11 Aug 2017, timestep = 5000000

7172 atoms
4 atom types
4000 bonds
1 bond types
2000 angles
1 angle types

0.0000000000000000e+00 4.5679949999999998e+01 xlo xhi
0.0000000000000000e+00 4.6885919999999999e+01 ylo yhi
0.0000000000000000e+00 6.5000000000000000e+01 zlo zhi

Masses

1 1.0079
2 15.9994
3 22.9898
4 107.868

Bond Coeffs # harmonic

1 450 0.9572

Angle Coeffs # harmonic

1 55 104.52

Atoms # full

6021 444 4 0.0000000000000000e+00 1.6907200000000000e+00 0.0000000000000000e+00 0.0000000000000000e+00 0 0 0
6022 444 4 0.0000000000000000e+00 4.2285000000000004e+00 1.4651900000000000e+00 0.0000000000000000e+00 0 0 0
6023 444 4 -6.9440000000000002e-02 1.6907700000000001e+00 0.0000000000000000e+00 7.1781499999999996e+00 0 0 0
6024 444 4 -6.9440000000000002e-02 4.2285500000000003e+00 1.4651900000000000e+00 7.1781499999999996e+00 0 0 0
6025 444 4 0.0000000000000000e+00 2.5366499999999998e+00 1.4651900000000000e+00 2.3926400000000001e+00 0 0 0
6026 444 4 0.0000000000000000e+00 5.0744199999999999e+00 0.0000000000000000e+00 2.3926400000000001e+00 0 0 0
6027 444 4 0.0000000000000000e+00 8.4509000000000001e-01 1.4651900000000000e+00 4.7824200000000001e+00 0 0 0
6028 444 4 0.0000000000000000e+00 3.3828600000000000e+00 0.0000000000000000e+00 4.7824499999999999e+00 0 0 0
6029 444 4 0.0000000000000000e+00 1.6907200000000000e+00 2.9303699999999999e+00 0.0000000000000000e+00 0 0 0
6030 444 4 0.0000000000000000e+00 4.2285000000000004e+00 4.3955599999999997e+00 0.0000000000000000e+00 0 0 0
6031 444 4 -6.9440000000000002e-02 1.6907700000000001e+00 2.9303699999999999e+00 7.1781899999999998e+00 0 0 0
6032 444 4 -6.9440000000000002e-02 4.2285500000000003e+00 4.3955599999999997e+00 7.1781600000000001e+00 0 0 0
6033 444 4 0.0000000000000000e+00 2.5366499999999998e+00 4.3955599999999997e+00 2.3926400000000001e+00 0 0 0
6034 444 4 0.0000000000000000e+00 5.0744199999999999e+00 2.9303699999999999e+00 2.3926400000000001e+00 0 0 0
6035 444 4 0.0000000000000000e+00 8.4509000000000001e-01 4.3955599999999997e+00 4.7824499999999999e+00 0 0 0
6036 444 4 0.0000000000000000e+00 3.3828700000000000e+00 2.9303699999999999e+00 4.7824400000000002e+00 0 0 0
6037 444 4 0.0000000000000000e+00 1.6907200000000000e+00 5.8607399999999998e+00 0.0000000000000000e+00 0 0 0
6038 444 4 0.0000000000000000e+00 4.2285000000000004e+00 7.3259299999999996e+00 0.0000000000000000e+00 0 0 0
6039 444 4 -6.9440000000000002e-02 1.6907700000000001e+00 5.8607399999999998e+00 7.1781499999999996e+00 0 0 0
6040 444 4 -6.9440000000000002e-02 4.2285500000000003e+00 7.3259299999999996e+00 7.1781499999999996e+00 0 0 0
6041 444 4 0.0000000000000000e+00 2.5366499999999998e+00 7.3259299999999996e+00 2.3926400000000001e+00 0 0 0
6042 444 4 0.0000000000000000e+00 5.0744199999999999e+00 5.8607399999999998e+00 2.3926400000000001e+00 0 0 0
6043 444 4 0.0000000000000000e+00 8.4509000000000001e-01 7.3259299999999996e+00 4.7824200000000001e+00 0 0 0
6044 444 4 0.0000000000000000e+00 3.3828600000000000e+00 5.8607399999999998e+00 4.7824499999999999e+00 0 0 0
6149 444 4 0.0000000000000000e+00 6.7662699999999996e+00 0.0000000000000000e+00 0.0000000000000000e+00 0 0 0
6151 444 4 -6.9440000000000002e-02 6.7663200000000003e+00 0.0000000000000000e+00 7.1781499999999996e+00 0 0 0
6153 444 4 0.0000000000000000e+00 7.6121999999999996e+00 1.4651900000000000e+00 2.3926400000000001e+00 0 0 0
6155 444 4 0.0000000000000000e+00 5.9206399999999997e+00 1.4651900000000000e+00 4.7824200000000001e+00 0 0 0
6157 444 4 0.0000000000000000e+00 6.7662699999999996e+00 2.9303699999999999e+00 0.0000000000000000e+00 0 0 0
6159 444 4 -6.9440000000000002e-02 6.7663200000000003e+00 2.9303699999999999e+00 7.1781899999999998e+00 0 0 0
6161 444 4 0.0000000000000000e+00 7.6121999999999996e+00 4.3955599999999997e+00 2.3926400000000001e+00 0 0 0
6163 444 4 0.0000000000000000e+00 5.9206399999999997e+00 4.3955599999999997e+00 4.7824499999999999e+00 0 0 0
6165 444 4 0.0000000000000000e+00 6.7662699999999996e+00 5.8607399999999998e+00 0.0000000000000000e+00 0 0 0
6167 444 4 -6.9440000000000002e-02 6.7663200000000003e+00 5.8607399999999998e+00 7.1781499999999996e+00 0 0 0
6169 444 4 0.0000000000000000e+00 7.6121999999999996e+00 7.3259299999999996e+00 2.3926400000000001e+00 0 0 0
6171 444 4 0.0000000000000000e+00 5.9206399999999997e+00 7.3259299999999996e+00 4.7824200000000001e+00 0 0 0
6150 444 4 0.0000000000000000e+00 9.3040500000000002e+00 1.4651900000000000e+00 0.0000000000000000e+00 0 0 0
6152 444 4 -6.9440000000000002e-02 9.3041000000000000e+00 1.4651900000000000e+00 7.1781499999999996e+00 0 0 0
6154 444 4 0.0000000000000000e+00 1.0149970000000000e+01 0.0000000000000000e+00 2.3926400000000001e+00 0 0 0
6156 444 4 0.0000000000000000e+00 8.4584100000000007e+00 0.0000000000000000e+00 4.7824499999999999e+00 0 0 0
6158 444 4 0.0000000000000000e+00 9.3040500000000002e+00 4.3955599999999997e+00 0.0000000000000000e+00 0 0 0
6160 444 4 -6.9440000000000002e-02 9.3041000000000000e+00 4.3955599999999997e+00 7.1781600000000001e+00 0 0 0
6162 444 4 0.0000000000000000e+00 1.0149970000000000e+01 2.9303699999999999e+00 2.3926400000000001e+00 0 0 0
6164 444 4 0.0000000000000000e+00 8.4584200000000003e+00 2.9303699999999999e+00 4.7824400000000002e+00 0 0 0
6166 444 4 0.0000000000000000e+00 9.3040500000000002e+00 7.3259299999999996e+00 0.0000000000000000e+00 0 0 0
6168 444 4 -6.9440000000000002e-02 9.3041000000000000e+00 7.3259299999999996e+00 7.1781499999999996e+00 0 0 0
6170 444 4 0.0000000000000000e+00 1.0149970000000000e+01 5.8607399999999998e+00 2.3926400000000001e+00 0 0 0
6172 444 4 0.0000000000000000e+00 8.4584100000000007e+00 5.8607399999999998e+00 4.7824499999999999e+00 0 0 0
6283 444 4 0.0000000000000000e+00 1.0996190000000000e+01 1.4651900000000000e+00 4.7824200000000001e+00 0 0 0
6291 444 4 0.0000000000000000e+00 1.0996190000000000e+01 4.3955599999999997e+00 4.7824499999999999e+00 0 0 0
6299 444 4 0.0000000000000000e+00 1.0996190000000000e+01 7.3259299999999996e+00 4.7824200000000001e+00 0 0 0
5145 444 1 4.1499999999999998e-01 4.6489624053841112e+00 5.5577449572132291e+00 9.5361819525658227e+00 -3 1 0
5376 444 1 4.1499999999999998e-01 5.9308332091982647e+00 2.3957003313267520e+00 1.2925027273763419e+01 1 -3 0
5374 444 2 -8.2999999999999996e-01 6.4862984002831894e+00 1.9757915071858516e+00 1.3581812535214770e+01 1 -3 0
5143 444 2 -8.2999999999999996e-01 4.9534691603308261e+00 5.5036132358267977e+00 1.0442039287994511e+01 -3 1 0
5375 444 1 4.1499999999999998e-01 5.9791937266270141e+00 1.2194891256353009e+00 1.3876911552910018e+01 1 -3 0
5144 444 1 4.1499999999999998e-01 4.9461745583756382e+00 6.4091432423519885e+00 1.0752192381202013e+01 -3 1 0
2398 444 2 -8.2999999999999996e-01 4.7249630912936942e+00 2.9482712345425512e+00 1.1613002028730417e+01 0 3 0
2399 444 1 4.1499999999999998e-01 4.7442916924551355e+00 3.8954103084961429e+00 1.1475937734866784e+01 0 3 0
2400 444 1 4.1499999999999998e-01 3.8732804977315736e+00 2.6739136942882249e+00 1.1273005333147429e+01 0 3 0
4806 444 1 4.1499999999999998e-01 2.5081296535948137e+00 1.6903458851042568e+00 9.5707890808381144e+00 1 4 0
4805 444 1 4.1499999999999998e-01 2.3764200111254197e+00 8.9004795322935260e-01 1.0849096984892039e+01 1 4 0
4804 444 2 -8.2999999999999996e-01 2.6140938853320832e+00 1.7568204751433940e+00 1.0519780644865865e+01 1 4 0
3134 444 1 4.1499999999999998e-01 8.2701570658642076e+00 5.8563863885877563e+00 9.9685989143896627e+00 2 -3 0
3133 444 2 -8.2999999999999996e-01 7.8862139730917136e+00 5.1677677709951437e+00 1.0511391665798886e+01 2 -3 0
3135 444 1 4.1499999999999998e-01 6.9412644125044984e+00 5.2769412022371807e+00 1.0404698481963907e+01 2 -3 0
20 444 1 4.1499999999999998e-01 8.7156108319908725e+00 6.1292784457576941e+00 1.3051231110159559e+01 4 0 0
4581 444 1 4.1499999999999998e-01 9.0380723991148848e+00 3.5114432717609927e+00 1.3559610609822311e+01 3 -2 0
3947 444 1 4.1499999999999998e-01 3.2168056372493026e+00 4.5498654611630460e+00 1.4882520371428530e+01 0 3 0
3946 444 2 -8.2999999999999996e-01 3.7457988004924174e+00 5.2986861238032947e+00 1.4607446318462847e+01 0 3 0
3948 444 1 4.1499999999999998e-01 4.6501572526769754e+00 4.9941753648660603e+00 1.4682552357103335e+01 0 3 0
4579 444 2 -8.2999999999999996e-01 9.4709394096907449e+00 2.7083784531486472e+00 1.3269878128477744e+01 3 -2 0
1141 444 2 -8.2999999999999996e-01 2.2032331686167370e+00 2.6740236922725726e+00 1.4855072779734641e+01 0 -1 0
4580 444 1 4.1499999999999998e-01 9.2331672532701461e+00 2.6274056570611783e+00 1.2346222497795377e+01 3 -2 0
1142 444 1 4.1499999999999998e-01 2.5046305117214480e+00 1.8749983836439983e+00 1.4422694907464248e+01 0 -1 0
2130 444 1 4.1499999999999998e-01 8.5434516292935783e+00 3.7211850768553756e+00 1.0493675074919311e+01 0 3 0
1073 444 1 4.1499999999999998e-01 7.0470582444073733e+00 4.6635954864398608e+00 1.4334052868743703e+01 -3 -5 0
2026 444 2 -8.2999999999999996e-01 1.0644648667854396e+01 1.6094670734673098e+00 1.5352816976353132e+01 -1 2 0
2128 444 2 -8.2999999999999996e-01 8.8083249510665969e+00 2.8267064777838882e+00 1.0708109813850912e+01 0 3 0
5054 444 1 4.1499999999999998e-01 1.0119142660487306e+01 1.6256033706865438e+00 1.0692006055745564e+01 7 1 0
2129 444 1 4.1499999999999998e-01 8.1764322721515299e+00 2.2728635695631145e+00 1.0249632293624806e+01 0 3 0
1143 444 1 4.1499999999999998e-01 1.2565677407107381e+00 2.6809747942178439e+00 1.4713619653899258e+01 0 -1 0
2027 444 1 4.1499999999999998e-01 1.0094478138754308e+01 2.0358034281361195e+00 1.4695716085080829e+01 -1 2 0
19 444 2 -8.2999999999999996e-01 8.3205390839839826e+00 5.2687740459367145e+00 1.3191526315368645e+01 4 0 0
2777 444 1 4.1499999999999998e-01 2.1299047102192805e+00 4.3854060814927607e+00 9.5330114571724884e+00 -1 0 0
4555 444 2 -8.2999999999999996e-01 1.2401002288177980e+00 7.0974548320443782e+00 1.0378818271691696e+01 -5 -2 0
21 444 1 4.1499999999999998e-01 8.1261996829102934e+00 4.9474924970914458e+00 1.2311047455245889e+01 4 0 0
4557 444 1 4.1499999999999998e-01 1.2443033878571241e+00 6.1454050316964448e+00 1.0477894805430248e+01 -5 -2 0
1072 444 2 -8.2999999999999996e-01 6.1570342506283451e+00 4.3976280815358821e+00 1.4565032721241394e+01 -3 -5 0
1074 444 1 4.1499999999999998e-01 6.1704062588911901e+00 3.4420602715330637e+00 1.4510769529698775e+01 -3 -5 0
5103 444 1 4.1499999999999998e-01 5.8878081371198236e+00 8.6077272570892360e-01 1.5953253161339964e+01 -6 2 0
344 444 1 4.1499999999999998e-01 7.7964930443586100e+00 8.3896695936870824e-01 1.3642737930491466e+01 2 4 0
3683 444 1 4.1499999999999998e-01 3.2126378817424550e+00 6.4800420756508172e+00 1.5880381111070184e+01 -2 1 0
893 444 1 4.1499999999999998e-01 9.7517204911914828e+00 6.1078241889609615e+00 1.1096717703967148e+01 5 7 0
1682 444 1 4.1499999999999998e-01 2.5525782904436234e-01 5.9115334649574738e+00 1.5046080849084571e+01 0 0 0
3527 444 1 4.1499999999999998e-01 1.1535456609427197e+00 6.3856900739831293e+00 1.2584042233540096e+01 0 2 0
892 444 2 -8.2999999999999996e-01 1.0598535761821173e+01 6.3105107310809672e+00 1.1494277922175362e+01 5 7 0
2778 444 1 4.1499999999999998e-01 1.5771038145142573e+00 3.3729427921133532e+00 1.0513432132837396e+01 -1 0 0
5434 444 2 -8.2999999999999996e-01 6.3791665018276342e+00 7.2770493678581671e-01 1.0424211743066637e+01 -4 -1 0
1224 444 1 4.1499999999999998e-01 2.9996626858351174e+00 3.1499479184748487e+00 1.6233567590177813e+01 0 5 0
3526 444 2 -8.2999999999999996e-01 3.5670354040641100e-01 6.0722381137768240e+00 1.3011853626263346e+01 0 2 0
345 444 1 4.1499999999999998e-01 9.1901945956192144e+00 4.5681655966544937e-01 1.4093795117087438e+01 2 4 0
5436 444 1 4.1499999999999998e-01 6.1199413380008547e+00 1.5639370895272833e+00 1.0811187807431795e+01 -4 -1 0
894 444 1 4.1499999999999998e-01 1.1027439882803407e+01 6.8889158558336812e+00 1.0863626651738697e+01 5 7 0
5435 444 1 4.1499999999999998e-01 5.8592649900933722e+00 6.6253368917205213e-01 9.6231579080341287e+00 -4 -1 0
5055 444 1 4.1499999999999998e-01 1.1136635234521066e+01 1.3333246595717128e+00 9.6097965175159068e+00 7 1 0
2776 444 2 -8.2999999999999996e-01 1.4431564791504250e+00 4.2632943826815781e+00 1.0188524764837734e+01 -1 0 0
4358 444 1 4.1499999999999998e-01 9.8572672691176528e+00 4.7723589941039020e+00 1.6029062425791434e+01 2 2 0
5053 444 2 -8.2999999999999996e-01 1.0833271587106024e+01 1.0298557686507690e+00 1.0465430312071652e+01 7 1 0
4556 444 1 4.1499999999999998e-01 9.6945956934057465e-01 7.2432086214413580e+00 9.4723185803917662e+00 -5 -2 0
5706 444 1 4.1499999999999998e-01 3.4553038633992093e+00 6.8195390896888366e+00 1.4002218078259746e+01 2 0 0
5704 444 2 -8.2999999999999996e-01 3.4886157821541479e+00 7.7732491999184683e+00 1.3927646352789900e+01 2 0 0
1903 444 2 -8.2999999999999996e-01 4.8004606792592295e+00 9.9812922357678593e-02 1.4462956937755703e+01 0 8 0
343 444 2 -8.2999999999999996e-01 8.3662698171984076e+00 8.2513902712790424e-02 1.3781900925078773e+01 2 4 0
4774 444 2 -8.2999999999999996e-01 1.5320606161181760e+00 3.1783853284064911e-01 1.8986978212408818e+01 -1 4 0
4357 444 2 -8.2999999999999996e-01 9.9659034431533549e+00 5.4941333316461289e+00 1.6648314080207186e+01 2 2 0
3680 444 1 4.1499999999999998e-01 6.9531418540768675e+00 6.7113510925967557e+00 2.0519232694619934e+01 3 -1 0
2284 444 2 -8.2999999999999996e-01 6.1400234125511277e-01 7.4270321512735968e+00 1.7890371572165826e+01 2 5 0
2285 444 1 4.1499999999999998e-01 1.6585724522705694e-01 6.7842004293130715e+00 1.7340675926234873e+01 2 5 0
789 444 1 4.1499999999999998e-01 8.7424281350052579e-01 3.3394112499171706e+00 1.8454816211403379e+01 -3 6 0
752 444 1 4.1499999999999998e-01 6.5116638324695408e+00 5.2092767103299327e+00 1.6386712755350704e+01 0 -1 0
3458 444 1 4.1499999999999998e-01 1.0715793392137750e+01 6.2104027749171724e+00 2.3857363358318157e+01 -3 0 0
3457 444 2 -8.2999999999999996e-01 9.9923276304142394e+00 6.6572425357460929e+00 2.4296869767627321e+01 -3 0 0
4359 444 1 4.1499999999999998e-01 9.0795135180053936e+00 5.6799646248415216e+00 1.6958173011293493e+01 2 2 0
1135 444 2 -8.2999999999999996e-01 8.5319758261850485e+00 2.6709422467692492e+00 1.7053174904657872e+01 1 -2 0
1137 444 1 4.1499999999999998e-01 9.1290444139526521e+00 1.9237482918891662e+00 1.7091155741055363e+01 1 -2 0
753 444 1 4.1499999999999998e-01 6.8600145046001417e+00 4.9101844477392014e+00 1.7829311608093761e+01 0 -1 0
751 444 2 -8.2999999999999996e-01 6.9728294348037405e+00 5.5692158157626359e+00 1.7144342270558948e+01 0 -1 0
3212 444 1 4.1499999999999998e-01 4.5939994967497420e+00 6.3456696008830606e+00 1.9429358599953197e+01 3 -1 0
1136 444 1 4.1499999999999998e-01 7.6823725455554523e+00 2.2883382633261005e+00 1.6834036572599949e+01 1 -2 0
1222 444 2 -8.2999999999999996e-01 3.5011668487737451e+00 3.3951361835717977e+00 1.7011133123620155e+01 0 5 0
1223 444 1 4.1499999999999998e-01 4.2532286035167113e+00 2.8029988492629108e+00 1.7008225045656413e+01 0 5 0
4250 444 1 4.1499999999999998e-01 8.8847673749164748e+00 1.7855573277431198e+00 2.1500982853905775e+01 0 4 0
5276 444 1 4.1499999999999998e-01 7.8513856614567263e+00 3.5413507328405847e+00 1.8534711707872891e+01 4 1 0
787 444 2 -8.2999999999999996e-01 1.6417850854520921e+00 2.7894686699849753e+00 1.8611895870882204e+01 -3 6 0
788 444 1 4.1499999999999998e-01 2.3027015001960347e+00 3.1204788603227667e+00 1.8003739944106112e+01 -3 6 0
5643 444 1 4.1499999999999998e-01 5.9226157845438596e+00 4.6162809409107499e+00 2.0074064376777230e+01 4 -4 0
5275 444 2 -8.2999999999999996e-01 7.2201996127485994e+00 3.7494678277613325e+00 1.9223569073679375e+01 4 1 0
5277 444 1 4.1499999999999998e-01 7.1764605701210771e+00 2.9557308285907480e+00 1.9756767709133868e+01 4 1 0
3732 444 1 4.1499999999999998e-01 4.7520930615703678e+00 6.0699682562700585e-01 1.9926705428646063e+01 -3 2 0
5641 444 2 -8.2999999999999996e-01 5.2905198081165654e+00 5.2309974354239586e+00 2.0446637885420465e+01 4 -4 0
3730 444 2 -8.2999999999999996e-01 4.8015819925128138e+00 1.1719163612173096e+00 1.9155570596494385e+01 -3 2 0
4784 444 1 4.1499999999999998e-01 2.4340062461351257e+00 2.9338286325767902e+00 2.0218108395969917e+01 3 1 0
3731 444 1 4.1499999999999998e-01 4.2498693186051231e+00 1.9233625188302061e+00 1.9372766837560434e+01 -3 2 0
2434 444 2 -8.2999999999999996e-01 8.1605180438455722e+00 3.6786810994409964e+00 2.4023922601311462e+01 1 1 0
3828 444 1 4.1499999999999998e-01 3.1712662885493392e-01 7.1395107536595575e+00 1.9519902805812389e+01 3 1 0
5101 444 2 -8.2999999999999996e-01 6.0718038785829140e+00 1.5390197605532345e+00 1.6603144390869456e+01 -6 2 0
5102 444 1 4.1499999999999998e-01 5.8014836789530122e+00 1.1528057593546910e+00 1.7436209888003518e+01 -6 2 0
4785 444 1 4.1499999999999998e-01 2.6988008107835255e+00 3.3609438903047981e+00 2.1646167353821713e+01 3 1 0
4783 444 2 -8.2999999999999996e-01 3.1209849527843230e+00 2.9646956817444758e+00 2.0883946341491285e+01 3 1 0
5642 444 1 4.1499999999999998e-01 4.7580251435023637e+00 4.6988366047308121e+00 2.1037811671974264e+01 4 -4 0
2365 444 2 -8.2999999999999996e-01 7.8416059592193132e+00 6.3073256000410560e-01 2.1105494118004099e+01 -1 3 0
1938 444 1 4.1499999999999998e-01 5.8854552290676692e+00 1.9330505142797780e+00 2.1821827307827622e+01 4 2 0
1936 444 2 -8.2999999999999996e-01 5.3711400136239833e+00 2.6479574810567845e+00 2.2196820448448545e+01 4 2 0
1937 444 1 4.1499999999999998e-01 4.5117818477750182e+00 2.5681867625661217e+00 2.1782847920128148e+01 4 2 0
4775 444 1 4.1499999999999998e-01 1.6732742427172904e+00 1.2230172452007018e+00 1.8709593776795494e+01 -1 4 0
2436 444 1 4.1499999999999998e-01 8.7037960905743326e+00 3.3433468296292181e+00 2.3310738083883464e+01 1 1 0
3725 444 1 4.1499999999999998e-01 2.3440861221246028e+00 5.1081328391136465e+00 2.2463616635619037e+01 -1 2 0
2974 444 2 -8.2999999999999996e-01 2.3516420143207983e+00 3.7331536421571334e+00 2.3383271332992564e+01 6 -6 0
3724 444 2 -8.2999999999999996e-01 2.6053526570464580e+00 5.8081251728255348e+00 2.1865299649438843e+01 -1 2 0
1201 444 2 -8.2999999999999996e-01 7.2049145490939326e+00 6.2359578642222484e+00 2.3681336545139803e+01 4 1 0
3726 444 1 4.1499999999999998e-01 1.8717930611391629e+00 5.8890634022164896e+00 2.1255733109641426e+01 -1 2 0
3213 444 1 4.1499999999999998e-01 3.8535985173180163e+00 6.5852416630900148e+00 1.8130779818078164e+01 3 -1 0
4382 444 1 4.1499999999999998e-01 9.5578368898418660e+00 4.1132188471656974e+00 2.1308638109484505e+01 -1 1 0
638 444 1 4.1499999999999998e-01 6.1774289560864198e-02 2.9743254251824713e+00 2.3027409302633124e+01 2 3 0
4249 444 2 -8.2999999999999996e-01 9.4384867396214496e+00 2.5594842406009448e+00 2.1604249438258798e+01 0 4 0
4383 444 1 4.1499999999999998e-01 8.9477505412550400e+00 5.4987090220366079e+00 2.1298292771412534e+01 -1 1 0
1083 444 1 4.1499999999999998e-01 1.1100177173076649e+01 4.3885075111434011e+00 1.7390058243628992e+01 1 -2 0
4381 444 2 -8.2999999999999996e-01 9.7881756768222452e+00 5.0419426110965313e+00 2.1334097582784960e+01 -1 1 0
2286 444 1 4.1499999999999998e-01 1.4030470514577222e+00 7.6547714442104606e+00 1.7398665194984808e+01 2 5 0
2975 444 1 4.1499999999999998e-01 1.5763387048705009e+00 4.1016578700362150e+00 2.3806758486922682e+01 6 -6 0
1982 444 1 4.1499999999999998e-01 5.5771988727378172e+00 2.4447718268030725e+00 2.4071773482057424e+01 2 0 0
3211 444 2 -8.2999999999999996e-01 4.2256342333160815e+00 7.0417979286396584e+00 1.8885350990276056e+01 3 -1 0
603 444 1 4.1499999999999998e-01 7.9182845644972066e-01 1.2122893736321985e+00 2.1614070566283004e+01 -3 -1 0
3826 444 2 -8.2999999999999996e-01 1.0999499788473703e-01 6.9345790650488190e+00 2.0431676600071526e+01 3 1 0
3459 444 1 4.1499999999999998e-01 9.2069450747725341e+00 6.2104729044445675e+00 2.3980953481281173e+01 -3 0 0
2366 444 1 4.1499999999999998e-01 8.4603957229106541e+00 1.9758232795812378e-01 2.0517520987697090e+01 -1 3 0
2792 444 1 4.1499999999999998e-01 2.5751418516064892e+00 2.3345235142057874e-01 2.3674448944242215e+01 3 -4 0
1805 444 1 4.1499999999999998e-01 1.1159523431029429e+01 9.3539914118964451e-01 2.3587490152202808e+01 1 -2 0
3615 444 1 4.1499999999999998e-01 3.4952935674078338e+00 7.4384515698681506e+00 2.2253665863195856e+01 -1 1 0
971 444 1 4.1499999999999998e-01 1.1072758260331188e+01 6.8092770174026818e+00 2.1263887457264591e+01 4 2 0
2976 444 1 4.1499999999999998e-01 3.0023998326148429e+00 3.6750006054171704e+00 2.4082817240848254e+01 6 -6 0
1203 444 1 4.1499999999999998e-01 7.1188271044621256e+00 5.2883241469595941e+00 2.3785313917481087e+01 4 1 0
3682 444 2 -8.2999999999999996e-01 2.8843636650621716e+00 7.1886532453144154e+00 1.6433859417509563e+01 -2 1 0
3 444 1 4.1499999999999998e-01 1.1039995835904685e+01 6.9013172624704335e+00 1.6647924245531517e+01 1 0 0
842 444 1 4.1499999999999998e-01 6.9155846726384889e+00 7.3518906316228714e+00 1.7748125469674175e+01 -2 0 0
1202 444 1 4.1499999999999998e-01 7.4175434900629584e+00 6.3575209341754810e+00 2.2756002425245391e+01 4 1 0
3681 444 1 4.1499999999999998e-01 8.1124424752363122e+00 7.5286245933697700e+00 2.1048365289930338e+01 3 -1 0
1804 444 2 -8.2999999999999996e-01 1.0693372542214336e+01 6.3490927241097928e-01 2.4367644985094184e+01 1 -2 0
3679 444 2 -8.2999999999999996e-01 7.6590319870639512e+00 6.6937990676004704e+00 2.1165485676385547e+01 3 -1 0
4251 444 1 4.1499999999999998e-01 1.0314502483339339e+01 2.2082501694652410e+00 2.1763820756042705e+01 0 4 0
970 444 2 -8.2999999999999996e-01 1.1097731771820515e+01 7.7609055218838110e+00 2.1363945697070960e+01 4 2 0
4776 444 1 4.1499999999999998e-01 1.2886662724631952e+00 3.8496806597210764e-01 1.9910279246721203e+01 -1 4 0
601 444 2 -8.2999999999999996e-01 1.2969438623830465e+00 4.0444827036585673e-01 2.1521966408296230e+01 -3 -1 0
4962 444 1 4.1499999999999998e-01 6.1774906301602026e-04 7.7075468329239127e+00 2.2217269032841664e+01 3 2 0
2100 444 1 4.1499999999999998e-01 6.9298490033064897e-01 6.2803663011404254e+00 3.0735824739521497e+01 -2 -1 0
2227 444 2 -8.2999999999999996e-01 1.7592916845955313e+00 7.5121918588350542e+00 2.5427604968739761e+01 2 -3 0
1748 444 1 4.1499999999999998e-01 4.0051428533527306e-01 2.0748117118874956e+00 2.5817408737951663e+01 -4 -2 0
515 444 1 4.1499999999999998e-01 1.1546774151627875e-01 1.9373288435348490e+00 2.9916417651896655e+01 3 1 0
4794 444 1 4.1499999999999998e-01 5.6098271357936547e+00 7.1507030554333006e-01 2.5383168182344868e+01 3 -1 0
3471 444 1 4.1499999999999998e-01 4.1872880403375881e+00 3.1798267838963928e-01 2.8648174836884618e+01 1 0 0
3956 444 1 4.1499999999999998e-01 4.8148345515170430e+00 9.4717423913031185e-01 3.0443413362162111e+01 -7 -2 0
2154 444 1 4.1499999999999998e-01 2.7035729451410999e+00 4.3501568466781670e-01 3.1043383258695119e+01 1 -2 0
1924 444 2 -8.2999999999999996e-01 1.0336618379582079e+01 5.1994644152304348e+00 2.6651053318330362e+01 4 1 0
2098 444 2 -8.2999999999999996e-01 2.6907624430658311e-01 7.0029214169198184e+00 3.1198909444241615e+01 -2 -1 0
1747 444 2 -8.2999999999999996e-01 3.0596003452478493e-01 2.5418211541681455e+00 2.6647585603423501e+01 -4 -2 0
1535 444 1 4.1499999999999998e-01 7.2118394214970500e+00 1.3957192238230343e+00 3.1034184565098958e+01 0 -1 0
3360 444 1 4.1499999999999998e-01 9.8859861831339320e+00 4.1059438767618426e+00 3.1185527159148673e+01 -6 0 0
3358 444 2 -8.2999999999999996e-01 9.7856425321676621e+00 3.3537749903702911e+00 3.1768969532046935e+01 -6 0 0
1534 444 2 -8.2999999999999996e-01 7.4759654616562496e+00 2.3054653285210396e+00 3.0896957305018454e+01 0 -1 0
3469 444 2 -8.2999999999999996e-01 3.6619328475079675e+00 4.7817623042159024e-01 2.7864228455343813e+01 1 0 0
3424 444 2 -8.2999999999999996e-01 2.8242688869567925e+00 5.7249524636799665e+00 2.7082527363666582e+01 1 -3 0
1499 444 1 4.1499999999999998e-01 1.7355381767775004e+00 5.4198310384023465e+00 2.8766174442932293e+01 2 0 0
1926 444 1 4.1499999999999998e-01 1.1076479772686415e+01 5.6282048050871465e+00 2.7081191373453422e+01 4 1 0
3425 444 1 4.1499999999999998e-01 2.1496240578139485e+00 6.3347922177991656e+00 2.6783893102355368e+01 1 -3 0
1517 444 1 4.1499999999999998e-01 1.1063422503779975e+01 1.9866661905637917e+00 3.0967571698602807e+01 0 3 0
2435 444 1 4.1499999999999998e-01 8.6736114577317949e+00 3.5129408683080552e+00 2.4814806920387642e+01 1 1 0
3087 444 1 4.1499999999999998e-01 9.4182408462455776e+00 5.5260783081265474e+00 2.9401087907744678e+01 1 -1 0
1042 444 2 -8.2999999999999996e-01 1.5316052523650898e+00 2.2071936745633756e+00 2.8871672780411494e+01 0 0 0
1043 444 1 4.1499999999999998e-01 1.1882214271619886e+00 2.3214325458571232e+00 2.7985518773409712e+01 0 0 0
3596 444 1 4.1499999999999998e-01 8.5555940295155430e+00 2.8862762447903090e+00 2.9439834154037829e+01 -4 4 0
5058 444 1 4.1499999999999998e-01 5.7429331798565828e+00 7.0829447652611544e+00 3.1083683479893068e+01 2 3 0
5056 444 2 -8.2999999999999996e-01 5.8249411603944194e+00 6.3142273717354724e+00 3.0519254453925203e+01 2 3 0
5298 444 1 4.1499999999999998e-01 5.4165423587550245e+00 6.8113006303285859e+00 2.7735253774152145e+01 -2 -2 0
1044 444 1 4.1499999999999998e-01 2.1800422424758050e+00 1.5079039138017662e+00 2.8789482664750029e+01 0 0 0
3595 444 2 -8.2999999999999996e-01 8.7946906559497826e+00 3.1544296317231124e+00 2.8552614305671746e+01 -4 4 0
5982 444 1 4.1499999999999998e-01 1.0460609230694695e+01 3.2840278984923792e+00 2.6252153041625466e+01 1 -2 0
1981 444 2 -8.2999999999999996e-01 5.8452484936182314e+00 2.4836676884026105e+00 2.4989852131116514e+01 2 0 0
1500 444 1 4.1499999999999998e-01 1.6517692640707977e+00 4.3187637623445880e+00 2.9801804206005038e+01 2 0 0
1983 444 1 4.1499999999999998e-01 6.7226909414769995e+00 2.8655524728765340e+00 2.4967701400277086e+01 2 0 0
1498 444 2 -8.2999999999999996e-01 1.5503185671890574e+00 5.2642532951882348e+00 2.9692307056865516e+01 2 0 0
3609 444 1 4.1499999999999998e-01 2.9822953959985705e+00 2.2354153242821599e+00 2.6297362240006450e+01 -2 -4 0
3608 444 1 4.1499999999999998e-01 4.2441592451393086e+00 2.7876045317191407e+00 2.5669124757079786e+01 -2 -4 0
3607 444 2 -8.2999999999999996e-01 3.3148297250858785e+00 2.9792579129151191e+00 2.5795016500378367e+01 -2 -4 0
3808 444 2 -8.2999999999999996e-01 7.8826437596367604e+00 5.5962701310421554e+00 2.8624136955415175e+01 8 2 0
3597 444 1 4.1499999999999998e-01 8.5619158935520705e+00 4.0819765516859459e+00 2.8511310172064444e+01 -4 4 0
5981 444 1 4.1499999999999998e-01 9.4475790615186241e+00 2.3795547881434818e+00 2.6921177310932404e+01 1 -2 0
1806 444 1 4.1499999999999998e-01 1.0451965078501381e+01 1.4389356503266963e+00 2.4827533995324607e+01 1 -2 0
5296 444 2 -8.2999999999999996e-01 4.6830528640681726e+00 6.9248218415194183e+00 2.8339685721238332e+01 -2 -2 0
5297 444 1 4.1499999999999998e-01 3.9874154196835025e+00 6.3752052599254565e+00 2.7978794995781257e+01 -2 -2 0
5980 444 2 -8.2999999999999996e-01 9.9657522213651841e+00 2.4750647873363039e+00 2.6122048843378810e+01 1 -2 0
3810 444 1 4.1499999999999998e-01 7.4836984648571692e+00 5.9061471070310905e+00 2.7811085975444659e+01 8 2 0
5057 444 1 4.1499999999999998e-01 5.3445628262711313e+00 6.5474405623397267e+00 2.9724848821118812e+01 2 3 0
3809 444 1 4.1499999999999998e-01 7.3317635056012742e+00 5.9618611025675836e+00 2.9316312851697329e+01 8 2 0
5974 444 2 -8.2999999999999996e-01 5.6709137199335702e+00 3.9870768779165990e+00 3.1849655827802646e+01 4 -3 0
5975 444 1 4.1499999999999998e-01 5.7933658482597838e+00 4.7785639400976976e+00 3.1325455883359137e+01 4 -3 0
3085 444 2 -8.2999999999999996e-01 9.9717684120308672e+00 5.5551294004608494e+00 3.0181469523430899e+01 1 -1 0
2187 444 1 4.1499999999999998e-01 8.7687886442935934e+00 6.2025990497699199e+00 3.1559024506978510e+01 0 6 0
2138 444 1 4.1499999999999998e-01 1.0733501782965055e+01 3.4211752201448835e+00 2.8844588055920603e+01 -1 -1 0
1536 444 1 4.1499999999999998e-01 6.7609408379187057e+00 2.8216953777845646e+00 3.1269083911743511e+01 0 -1 0
3086 444 1 4.1499999999999998e-01 1.0452910656411188e+01 6.3789710839373361e+00 3.0103887887461564e+01 1 -1 0
3359 444 1 4.1499999999999998e-01 8.9182190031900621e+00 3.0049188367676645e+00 3.1563767694266872e+01 -6 0 0
3652 444 2 -8.2999999999999996e-01 6.8947190111014374e+00 6.9460848533511914e+00 2.6539671011609158e+01 -5 1 0
3955 444 2 -8.2999999999999996e-01 4.1595742583177957e+00 1.5488499561089162e+00 3.0796758513983345e+01 -7 -2 0
3957 444 1 4.1499999999999998e-01 4.6187222238318766e+00 2.3851544003523526e+00 3.0874283076133526e+01 -7 -2 0
3426 444 1 4.1499999999999998e-01 2.5981636478596863e+00 4.8937485855607195e+00 2.6665144287964530e+01 1 -3 0
1925 444 1 4.1499999999999998e-01 1.0196030859677068e+01 5.7077212217637650e+00 2.5852215347273486e+01 4 1 0
3653 444 1 4.1499999999999998e-01 7.4968117565342798e+00 6.6208984227550536e+00 2.5870365348262162e+01 -5 1 0
2185 444 2 -8.2999999999999996e-01 8.4347000446309170e+00 6.7897703708838995e+00 3.2237144627462570e+01 0 6 0
4019 444 1 4.1499999999999998e-01 3.1338112098968081e+00 4.3905312786764741e+00 3.1711033496692778e+01 1 -1 0
2228 444 1 4.1499999999999998e-01 1.3702361951215658e+00 7.4606778852392628e+00 2.4554556010678283e+01 2 -3 0
183 444 1 4.1499999999999998e-01 1.1039702263808138e+01 6.8985448941466272e+00 3.3804177155784522e+01 2 -4 0
635 444 1 4.1499999999999998e-01 4.7414634606502686e+00 1.2368080622577271e+00 3.3177370356597379e+01 -3 2 0
792 444 1 4.1499999999999998e-01 8.0329121957947898e+00 6.3042245686314358e+00 3.3908261715821723e+01 1 3 0
2451 444 1 4.1499999999999998e-01 4.1372829464570754e-01 3.8473062153576465e+00 3.4316292462078422e+01 -4 2 0
5976 444 1 4.1499999999999998e-01 5.0987388748715947e+00 4.2602864196098142e+00 3.2566736265197136e+01 4 -3 0
4672 444 2 -8.2999999999999996e-01 1.0855714226724695e+01 3.0965366493409312e+00 3.4092055250803334e+01 -5 2 0
2449 444 2 -8.2999999999999996e-01 1.0973756685442737e+00 4.2353644655207559e+00 3.4862433346878262e+01 -4 2 0
2432 444 1 4.1499999999999998e-01 3.9402487514562656e+00 7.4455624791050159e+00 3.6270277888764163e+01 0 4 0