LAMMPS data file via write_data, version 11 Aug 2017, timestep = 5000000

7174 atoms
4 atom types
4000 bonds
1 bond types
2000 angles
1 angle types

0.0000000000000000e+00 4.5679949999999998e+01 xlo xhi
0.0000000000000000e+00 4.6885919999999999e+01 ylo yhi
0.0000000000000000e+00 6.5000000000000000e+01 zlo zhi

Masses

1 1.0079
2 15.9994
3 22.9898
4 107.868

Bond Coeffs # harmonic

1 450 0.9572

Angle Coeffs # harmonic

1 55 104.52

Atoms # full

6023 444 4 0.0000000000000000e+00 1.6907200000000000e+00 0.0000000000000000e+00 0.0000000000000000e+00 0 0 0
6024 444 4 0.0000000000000000e+00 4.2285000000000004e+00 1.4651900000000000e+00 0.0000000000000000e+00 0 0 0
6025 444 4 -7.6390000000000000e-02 1.6907700000000001e+00 0.0000000000000000e+00 7.1781499999999996e+00 0 0 0
6026 444 4 -7.6390000000000000e-02 4.2285500000000003e+00 1.4651900000000000e+00 7.1781499999999996e+00 0 0 0
6027 444 4 0.0000000000000000e+00 2.5366499999999998e+00 1.4651900000000000e+00 2.3926400000000001e+00 0 0 0
6028 444 4 0.0000000000000000e+00 5.0744199999999999e+00 0.0000000000000000e+00 2.3926400000000001e+00 0 0 0
6029 444 4 0.0000000000000000e+00 8.4509000000000001e-01 1.4651900000000000e+00 4.7824200000000001e+00 0 0 0
6030 444 4 0.0000000000000000e+00 3.3828600000000000e+00 0.0000000000000000e+00 4.7824499999999999e+00 0 0 0
6031 444 4 0.0000000000000000e+00 1.6907200000000000e+00 2.9303699999999999e+00 0.0000000000000000e+00 0 0 0
6032 444 4 0.0000000000000000e+00 4.2285000000000004e+00 4.3955599999999997e+00 0.0000000000000000e+00 0 0 0
6033 444 4 -7.6390000000000000e-02 1.6907700000000001e+00 2.9303699999999999e+00 7.1781899999999998e+00 0 0 0
6034 444 4 -7.6390000000000000e-02 4.2285500000000003e+00 4.3955599999999997e+00 7.1781600000000001e+00 0 0 0
6035 444 4 0.0000000000000000e+00 2.5366499999999998e+00 4.3955599999999997e+00 2.3926400000000001e+00 0 0 0
6036 444 4 0.0000000000000000e+00 5.0744199999999999e+00 2.9303699999999999e+00 2.3926400000000001e+00 0 0 0
6037 444 4 0.0000000000000000e+00 8.4509000000000001e-01 4.3955599999999997e+00 4.7824499999999999e+00 0 0 0
6038 444 4 0.0000000000000000e+00 3.3828700000000000e+00 2.9303699999999999e+00 4.7824400000000002e+00 0 0 0
6039 444 4 0.0000000000000000e+00 1.6907200000000000e+00 5.8607399999999998e+00 0.0000000000000000e+00 0 0 0
6041 444 4 -7.6390000000000000e-02 1.6907700000000001e+00 5.8607399999999998e+00 7.1781499999999996e+00 0 0 0
6044 444 4 0.0000000000000000e+00 5.0744199999999999e+00 5.8607399999999998e+00 2.3926400000000001e+00 0 0 0
6046 444 4 0.0000000000000000e+00 3.3828600000000000e+00 5.8607399999999998e+00 4.7824499999999999e+00 0 0 0
6151 444 4 0.0000000000000000e+00 6.7662699999999996e+00 0.0000000000000000e+00 0.0000000000000000e+00 0 0 0
6153 444 4 -7.6390000000000000e-02 6.7663200000000003e+00 0.0000000000000000e+00 7.1781499999999996e+00 0 0 0
6155 444 4 0.0000000000000000e+00 7.6121999999999996e+00 1.4651900000000000e+00 2.3926400000000001e+00 0 0 0
6157 444 4 0.0000000000000000e+00 5.9206399999999997e+00 1.4651900000000000e+00 4.7824200000000001e+00 0 0 0
6159 444 4 0.0000000000000000e+00 6.7662699999999996e+00 2.9303699999999999e+00 0.0000000000000000e+00 0 0 0
6161 444 4 -7.6390000000000000e-02 6.7663200000000003e+00 2.9303699999999999e+00 7.1781899999999998e+00 0 0 0
6163 444 4 0.0000000000000000e+00 7.6121999999999996e+00 4.3955599999999997e+00 2.3926400000000001e+00 0 0 0
6165 444 4 0.0000000000000000e+00 5.9206399999999997e+00 4.3955599999999997e+00 4.7824499999999999e+00 0 0 0
6167 444 4 0.0000000000000000e+00 6.7662699999999996e+00 5.8607399999999998e+00 0.0000000000000000e+00 0 0 0
6169 444 4 -7.6390000000000000e-02 6.7663200000000003e+00 5.8607399999999998e+00 7.1781499999999996e+00 0 0 0
6152 444 4 0.0000000000000000e+00 9.3040500000000002e+00 1.4651900000000000e+00 0.0000000000000000e+00 0 0 0
6154 444 4 -7.6390000000000000e-02 9.3041000000000000e+00 1.4651900000000000e+00 7.1781499999999996e+00 0 0 0
6156 444 4 0.0000000000000000e+00 1.0149970000000000e+01 0.0000000000000000e+00 2.3926400000000001e+00 0 0 0
6158 444 4 0.0000000000000000e+00 8.4584100000000007e+00 0.0000000000000000e+00 4.7824499999999999e+00 0 0 0
6160 444 4 0.0000000000000000e+00 9.3040500000000002e+00 4.3955599999999997e+00 0.0000000000000000e+00 0 0 0
6162 444 4 -7.6390000000000000e-02 9.3041000000000000e+00 4.3955599999999997e+00 7.1781600000000001e+00 0 0 0
6164 444 4 0.0000000000000000e+00 1.0149970000000000e+01 2.9303699999999999e+00 2.3926400000000001e+00 0 0 0
6166 444 4 0.0000000000000000e+00 8.4584200000000003e+00 2.9303699999999999e+00 4.7824400000000002e+00 0 0 0
6172 444 4 0.0000000000000000e+00 1.0149970000000000e+01 5.8607399999999998e+00 2.3926400000000001e+00 0 0 0
6174 444 4 0.0000000000000000e+00 8.4584100000000007e+00 5.8607399999999998e+00 4.7824499999999999e+00 0 0 0
6285 444 4 0.0000000000000000e+00 1.0996190000000000e+01 1.4651900000000000e+00 4.7824200000000001e+00 0 0 0
6293 444 4 0.0000000000000000e+00 1.0996190000000000e+01 4.3955599999999997e+00 4.7824499999999999e+00 0 0 0
1364 444 1 4.1499999999999998e-01 3.7776510728276045e+00 4.0156826709157656e+00 1.2587524498656000e+01 2 1 0
1363 444 2 -8.2999999999999996e-01 4.3645913308449105e+00 4.6455395294264807e+00 1.3005870397521790e+01 2 1 0
4472 444 1 4.1499999999999998e-01 5.8276978260549273e+00 2.3329498154200192e+00 1.1137780930730347e+01 1 2 0
4451 444 1 4.1499999999999998e-01 1.0825654168139916e+01 2.6968891260046837e+00 1.4978084039061569e+01 2 -4 0
3437 444 1 4.1499999999999998e-01 2.3720902815335578e+00 7.6021221725467580e-01 1.3951772515517328e+01 3 5 0
3436 444 2 -8.2999999999999996e-01 1.5685105899133027e+00 1.2616592245156817e+00 1.3813776928617989e+01 3 5 0
3487 444 2 -8.2999999999999996e-01 1.3334124414270279e+00 4.6044887438224977e+00 1.0493097972904506e+01 1 -1 0
4002 444 1 4.1499999999999998e-01 8.9251528710299350e+00 3.0052564970451523e+00 1.3643047841289338e+01 -5 5 0
4000 444 2 -8.2999999999999996e-01 9.1122148607966356e+00 3.4843665009367690e+00 1.4450322999130805e+01 -5 5 0
4471 444 2 -8.2999999999999996e-01 6.3381716792084033e+00 2.8858311846639175e+00 1.0546197344075468e+01 1 2 0
1365 444 1 4.1499999999999998e-01 4.8098652832110345e+00 5.0789208272729729e+00 1.2277760829428885e+01 2 1 0
3488 444 1 4.1499999999999998e-01 1.5350374153678767e+00 4.2695721229312609e+00 9.6193643731605292e+00 1 -1 0
4473 444 1 4.1499999999999998e-01 5.8879768189105155e+00 2.8162036413014113e+00 9.7043489123602633e+00 1 2 0
3757 444 2 -8.2999999999999996e-01 5.7084487640210302e+00 5.3257891515590075e+00 1.5118449736790252e+01 1 0 0
4393 444 2 -8.2999999999999996e-01 1.0478704405095682e+01 5.6979112442042732e+00 1.0743805563249758e+01 0 2 0
4394 444 1 4.1499999999999998e-01 9.5253113158555447e+00 5.7676407645718344e+00 1.0694701496697514e+01 0 2 0
3758 444 1 4.1499999999999998e-01 5.0585136496065601e+00 5.0142782275296502e+00 1.4488547237397928e+01 1 0 0
2074 444 2 -8.2999999999999996e-01 2.8779775846795621e+00 2.7751193649220891e+00 1.2021231605312030e+01 1 1 0
3489 444 1 4.1499999999999998e-01 2.0339999931863684e+00 4.2627863279434761e+00 1.1048659821562742e+01 1 -1 0
1780 444 2 -8.2999999999999996e-01 8.9527938298717800e+00 2.2326718161910351e+00 1.2178973189236718e+01 0 1 0
2075 444 1 4.1499999999999998e-01 2.8508682890832868e+00 2.0150390968358991e+00 1.1440047615335176e+01 1 1 0
2036 444 1 4.1499999999999998e-01 8.0914207478564268e+00 5.2101737478363974e+00 1.2457790837462881e+01 4 0 0
4001 444 1 4.1499999999999998e-01 8.8017363720522717e+00 4.3734849353497145e+00 1.4279140974047710e+01 -5 5 0
1036 444 2 -8.2999999999999996e-01 7.8620862201048256e+00 4.9482701255505361e+00 1.0482943180542804e+01 -1 1 0
5099 444 1 4.1499999999999998e-01 8.5318449346255782e+00 2.0937438148531573e+00 1.5698498202703748e+01 1 -1 0
1781 444 1 4.1499999999999998e-01 8.3022160189090624e+00 2.2839677164833279e+00 1.1478723727979611e+01 0 1 0
1037 444 1 4.1499999999999998e-01 7.3409476485681324e+00 5.4182451489653065e+00 9.8319670722248294e+00 -1 1 0
2171 444 1 4.1499999999999998e-01 4.5983589624579073e+00 8.1803335591291337e-01 1.2231094344286154e+01 -1 -1 0
3438 444 1 4.1499999999999998e-01 1.3714372489685600e+00 1.6397863056521234e+00 1.4670756816734027e+01 3 5 0
1782 444 1 4.1499999999999998e-01 9.6386519398657686e+00 1.6645294550375525e+00 1.1828195394316575e+01 0 1 0
1302 444 1 4.1499999999999998e-01 1.2374535586366103e-01 3.5516779957447397e+00 1.1903716006257328e+01 8 -1 0
1160 444 1 4.1499999999999998e-01 1.0751022149726259e+01 1.3405002406302908e+00 9.4228382739977121e+00 2 2 0
1199 444 1 4.1499999999999998e-01 2.8474349539036581e+00 1.2448831872173924e+00 9.7032685149852540e+00 -3 0 0
2076 444 1 4.1499999999999998e-01 2.3906423313465175e+00 2.5007410412462430e+00 1.2798053812156008e+01 1 1 0
3759 444 1 4.1499999999999998e-01 6.5197906832538761e+00 5.3893619241458692e+00 1.4614550328320073e+01 1 0 0
4476 444 1 4.1499999999999998e-01 3.6651115557463374e+00 3.5517161532352519e+00 1.6091442431884978e+01 1 3 0
1159 444 2 -8.2999999999999996e-01 1.1093387463893739e+01 1.2524529197352727e+00 1.0312369401035420e+01 2 2 0
1038 444 1 4.1499999999999998e-01 7.4531586329839268e+00 4.0846806325106977e+00 1.0539716676680369e+01 -1 1 0
5100 444 1 4.1499999999999998e-01 7.2076609949767443e+00 1.4390964580522052e+00 1.6029963390947383e+01 1 -1 0
902 444 1 4.1499999999999998e-01 8.5331445259340928e+00 6.5491237960976019e+00 1.5746025328682533e+01 -4 -1 0
4007 444 1 4.1499999999999998e-01 4.7776536842821722e+00 7.0014658299415533e-01 1.4914320000899592e+01 5 -5 0
2035 444 2 -8.2999999999999996e-01 7.9804122101417869e+00 5.6632449290603430e+00 1.3293635646580899e+01 4 0 0
1125 444 1 4.1499999999999998e-01 1.0525784728565030e+01 6.1610778959973134e+00 1.2582698869709580e+01 -3 -1 0
1198 444 2 -8.2999999999999996e-01 2.2330866316354210e+00 7.6615178173951204e-01 1.0259707532680881e+01 -3 0 0
459 444 1 4.1499999999999998e-01 5.4823582490716694e-01 2.2440919143739063e-01 1.0504013286146643e+01 -4 0 0
4395 444 1 4.1499999999999998e-01 1.0719877627656610e+01 5.1666500826313513e+00 9.9849718923494972e+00 0 2 0
5987 444 1 4.1499999999999998e-01 7.9321722897606755e+00 6.6397150283614814e-01 9.8221477327541322e+00 -5 -2 0
2037 444 1 4.1499999999999998e-01 8.4751920309477846e+00 6.4764911839972497e+00 1.3193355199630671e+01 4 0 0
1665 444 1 4.1499999999999998e-01 3.6136999210658622e+00 6.6278381170467906e+00 1.0017035648478560e+01 5 -3 0
1663 444 2 -8.2999999999999996e-01 4.3006947563927325e+00 6.0399573297544089e+00 1.0331147462804511e+01 5 -3 0
4006 444 2 -8.2999999999999996e-01 4.5116173283533900e+00 2.6047498930153784e-01 1.4106763788646814e+01 5 -5 0
5988 444 1 4.1499999999999998e-01 6.7802654268700060e+00 5.2652274682140154e-01 1.0794831575781485e+01 -5 -2 0
1664 444 1 4.1499999999999998e-01 4.6348493636915062e+00 5.6170438400849969e+00 9.5401248721904803e+00 5 -3 0
1123 444 2 -8.2999999999999996e-01 1.0794932833784557e+01 6.5345604621159454e+00 1.3421925857871468e+01 -3 -1 0
3902 444 1 4.1499999999999998e-01 1.2644497653100302e+00 6.3463129073531466e+00 1.0278659395180872e+01 2 -1 0
2170 444 2 -8.2999999999999996e-01 5.0479305318151804e+00 5.8332811240939186e-01 1.1419286742450435e+01 -1 -1 0
901 444 2 -8.2999999999999996e-01 9.4682019025181656e+00 6.3881046832932009e+00 1.5872407389199342e+01 -4 -1 0
5986 444 2 -8.2999999999999996e-01 7.6723490804767529e+00 2.2115120138789818e-01 1.0630005486519817e+01 -5 -2 0
903 444 1 4.1499999999999998e-01 9.8424128771570523e+00 6.4444709713334625e+00 1.4993191017090048e+01 -4 -1 0
796 444 2 -8.2999999999999996e-01 1.0474429111125097e+01 1.0564873903867249e+00 2.1622093766383156e+01 0 3 0
3790 444 2 -8.2999999999999996e-01 1.2540798123291503e+00 2.0206023050651050e+00 1.6553232634093185e+01 -3 5 0
370 444 2 -8.2999999999999996e-01 1.1354059480390561e+01 1.0307728372709739e+00 1.7875040031260696e+01 1 1 0
2871 444 1 4.1499999999999998e-01 3.1512867934770455e-01 2.6997015276750767e+00 2.0571163101540208e+01 -4 6 0
2828 444 1 4.1499999999999998e-01 5.3344659011714395e+00 6.9589381973401432e-01 1.6920018614531227e+01 0 -5 0
2829 444 1 4.1499999999999998e-01 5.5235665189480301e+00 2.1972473255200562e+00 1.6874477908013514e+01 0 -5 0
5096 444 1 4.1499999999999998e-01 1.0218473852222765e+01 4.5878034184552705e+00 1.9211166016991989e+01 3 -1 0
380 444 1 4.1499999999999998e-01 3.4444282395613319e+00 1.2630275023687607e-01 1.9592477099440277e+01 1 1 0
3792 444 1 4.1499999999999998e-01 7.3363164019633642e-01 2.5908936225648991e+00 1.7119036454361336e+01 -3 5 0
5098 444 2 -8.2999999999999996e-01 8.1159527514281429e+00 1.5019291726944743e+00 1.6325413025413607e+01 1 -1 0
1786 444 2 -8.2999999999999996e-01 8.2856392676584463e+00 4.8559048914960261e+00 2.2364566823199823e+01 0 6 0
5581 444 2 -8.2999999999999996e-01 1.2558306213804487e+00 4.8955689896264056e+00 2.2719364423449772e+01 3 -3 0
381 444 1 4.1499999999999998e-01 3.8716721600116792e+00 5.7257898043678590e-01 2.0974575283713101e+01 1 1 0
371 444 1 4.1499999999999998e-01 1.0518169897681046e+01 1.2259833364780932e+00 1.8298612930644293e+01 1 1 0
5583 444 1 4.1499999999999998e-01 9.8022689422971898e-01 4.1494925823154931e+00 2.2186780908674500e+01 3 -3 0
2119 444 2 -8.2999999999999996e-01 1.2842568162661328e+00 6.1270662653758148e+00 1.9336274157434129e+01 0 1 0
3746 444 1 4.1499999999999998e-01 7.0313000849666905e+00 8.0943000902264439e-01 2.1093596305597437e+01 -1 2 0
4985 444 1 4.1499999999999998e-01 3.7493037674440362e+00 3.8337440667610010e+00 1.8671831995347965e+01 -1 1 0
4984 444 2 -8.2999999999999996e-01 3.9152459551536798e+00 4.0004661042483205e+00 1.9599678326781714e+01 -1 1 0
3747 444 1 4.1499999999999998e-01 7.8938285673196278e+00 1.8015883282583802e+00 2.0342888432017212e+01 -1 2 0
4475 444 1 4.1499999999999998e-01 2.6219178713627995e+00 3.0721760685583219e+00 1.7078196341421897e+01 1 3 0
4474 444 2 -8.2999999999999996e-01 3.3959255864328828e+00 3.6307633202972478e+00 1.7006605029790173e+01 1 3 0
3457 444 2 -8.2999999999999996e-01 8.9070905879098596e+00 1.6073662845041390e+00 1.8816739059310162e+01 -3 -1 0
3459 444 1 4.1499999999999998e-01 8.5657988215195306e+00 1.3676768546628757e+00 1.7955170398873630e+01 -3 -1 0
3458 444 1 4.1499999999999998e-01 9.2692396011788549e+00 2.4851097956967640e+00 1.8695717133903056e+01 -3 -1 0
1394 444 1 4.1499999999999998e-01 5.5156864102235552e+00 6.0925009866009958e+00 2.1344294732650152e+01 5 -2 0
1393 444 2 -8.2999999999999996e-01 5.2106011497460214e+00 5.2607510769833263e+00 2.1706713454508517e+01 5 -2 0
1395 444 1 4.1499999999999998e-01 4.7021288315510601e+00 4.8631017829723797e+00 2.0999915449218584e+01 5 -2 0
2943 444 1 4.1499999999999998e-01 5.6093846927487716e+00 2.5137512005544331e+00 2.2009013708990633e+01 -1 -1 0
3745 444 2 -8.2999999999999996e-01 7.5033733913966971e+00 1.6351888957107064e+00 2.1200844541636151e+01 -1 2 0
2869 444 2 -8.2999999999999996e-01 8.7841423896959869e-01 2.6831762131776848e+00 1.9797426642949631e+01 -4 6 0
2870 444 1 4.1499999999999998e-01 1.6861955580098662e+00 2.2664349270024280e+00 2.0097506286195820e+01 -4 6 0
2941 444 2 -8.2999999999999996e-01 5.2069731009084759e+00 2.4717391689112453e+00 2.2876499630548309e+01 -1 -1 0
2942 444 1 4.1499999999999998e-01 4.9490641316370825e+00 1.5554660396857016e+00 2.2977291417839133e+01 -1 -1 0
5095 444 2 -8.2999999999999996e-01 1.0119159159531876e+01 3.7695630980850541e+00 1.8724491647554750e+01 3 -1 0
4097 444 1 4.1499999999999998e-01 2.5480225587220779e+00 5.6113359673448002e+00 2.3386106701801442e+01 3 0 0
1787 444 1 4.1499999999999998e-01 7.3449366773556610e+00 4.8901088856220705e+00 2.2190956769008782e+01 0 6 0
1788 444 1 4.1499999999999998e-01 8.4244982878388424e+00 3.9982890058073028e+00 2.2766368949569916e+01 0 6 0
4986 444 1 4.1499999999999998e-01 3.8576991089027732e+00 3.1387311353401373e+00 2.0012392574263433e+01 -1 1 0
332 444 1 4.1499999999999998e-01 4.0725049841994148e+00 5.8477839259345847e+00 1.8549413712929876e+01 1 -2 0
2120 444 1 4.1499999999999998e-01 1.9401142125514743e+00 5.7864833482816493e+00 1.9944621551599599e+01 0 1 0
2070 444 1 4.1499999999999998e-01 7.9721872478477485e+00 2.0668642512254025e+00 2.2774855044545962e+01 0 2 0
4098 444 1 4.1499999999999998e-01 4.0260494421811401e+00 5.2930559234827204e+00 2.3308457004142596e+01 3 0 0
379 444 2 -8.2999999999999996e-01 3.4797576817704039e+00 8.9430156261229010e-01 2.0162707127142891e+01 1 1 0
331 444 2 -8.2999999999999996e-01 4.6988230691305581e+00 6.1138847056211736e+00 1.7876250978205512e+01 1 -2 0
2069 444 1 4.1499999999999998e-01 8.1327829900808144e+00 2.2087584452134736e+00 2.4273511858273086e+01 0 2 0
2068 444 2 -8.2999999999999996e-01 8.5353988661773421e+00 2.4592134938623382e+00 2.3442004381466450e+01 0 2 0
4096 444 2 -8.2999999999999996e-01 3.4021870838861066e+00 5.8987812508664996e+00 2.3708612524518724e+01 3 0 0
333 444 1 4.1499999999999998e-01 5.0114938689489588e+00 5.2908774145143775e+00 1.7500580938062061e+01 1 -2 0
3763 444 2 -8.2999999999999996e-01 9.9980437811794030e+00 5.8529541305448642e+00 2.0451739981619067e+01 1 0 0
3791 444 1 4.1499999999999998e-01 1.0268507457134186e+00 1.1336123150998063e+00 1.6832245536981699e+01 -3 5 0
798 444 1 4.1499999999999998e-01 1.0204494707846077e+01 1.4710542497934975e+00 2.2441546182670887e+01 0 3 0
3764 444 1 4.1499999999999998e-01 9.3597322334880602e+00 5.4860003771569552e+00 2.1063407156657767e+01 1 0 0
5097 444 1 4.1499999999999998e-01 1.0821981801061391e+01 3.7898300503193667e+00 1.8074982941274094e+01 3 -1 0
2121 444 1 4.1499999999999998e-01 6.7868513544487907e-01 6.6216691504518108e+00 1.9888436818109856e+01 0 1 0
2827 444 2 -8.2999999999999996e-01 5.2873374321638655e+00 1.4471714274106158e+00 1.6328754593311107e+01 0 -5 0
797 444 1 4.1499999999999998e-01 1.0105404376227161e+01 1.6148089747264800e+00 2.0937747385599444e+01 0 3 0
1755 444 1 4.1499999999999998e-01 2.0079577560400946e-01 5.0314003904666595e+00 1.8511838828766596e+01 0 -1 0
5582 444 1 4.1499999999999998e-01 4.8012595706764755e-01 5.1245776446918896e+00 2.3231291880644580e+01 3 -3 0
3765 444 1 4.1499999999999998e-01 9.4676231521284500e+00 6.2525555249275273e+00 1.9762388793625529e+01 1 0 0
372 444 1 4.1499999999999998e-01 1.1165868111309539e+01 1.0816125258474565e+00 1.6937899980924925e+01 1 1 0
2258 444 1 4.1499999999999998e-01 1.1220033179421517e+01 6.6666310191023701e+00 2.1031507667024279e+01 1 -2 0
4267 444 2 -8.2999999999999996e-01 9.0730945065899160e-01 3.8880317462710354e+00 2.8429291363665996e+01 -4 0 0
1101 444 1 4.1499999999999998e-01 5.6426106845380852e+00 6.4982006924450717e+00 2.9940456182353401e+01 2 -1 0
5329 444 2 -8.2999999999999996e-01 1.0958021474649540e+01 5.7097860371395504e-01 2.7533310007359329e+01 -3 1 0
2237 444 1 4.1499999999999998e-01 1.1350390536674823e+01 2.1580789021523832e+00 3.2317002450133138e+01 -1 -1 0
1537 444 2 -8.2999999999999996e-01 5.8807152926275332e+00 7.4357244444050752e-01 2.9161097213730333e+01 1 4 0
3969 444 1 4.1499999999999998e-01 2.0673704614524477e+00 4.5719983423542160e-01 2.9125738884758505e+01 3 -1 0
3335 444 1 4.1499999999999998e-01 2.5028370959996166e-01 1.2347221625224689e+00 2.8704595474109084e+01 -5 0 0
1688 444 1 4.1499999999999998e-01 1.8060572145348770e+00 4.6365464394314087e+00 3.1753951248788198e+01 -3 1 0
1539 444 1 4.1499999999999998e-01 6.7225255149593623e+00 9.7827967359918122e-01 2.9551609813193284e+01 1 4 0
1100 444 1 4.1499999999999998e-01 5.1363384723523957e+00 5.9534559665268549e+00 3.1259105760593499e+01 2 -1 0
3698 444 1 4.1499999999999998e-01 9.1305287272381186e+00 2.9130262145903674e-01 3.0274710299574696e+01 -5 0 0
5614 444 2 -8.2999999999999996e-01 5.5334815155141781e+00 6.6690093301491284e+00 2.5261585576088706e+01 2 -2 0
4269 444 1 4.1499999999999998e-01 1.4923182755156175e+00 3.8836063835558847e+00 2.9186904046005214e+01 -4 0 0
1086 444 1 4.1499999999999998e-01 1.0325930861016602e+01 3.0621524811506968e+00 2.7609082356735655e+01 -1 4 0
392 444 1 4.1499999999999998e-01 1.0192708929566052e+01 5.7215302549405749e+00 3.1926182538704911e+01 -2 -2 0
1984 444 2 -8.2999999999999996e-01 7.4787212744370457e+00 4.6974443171762434e+00 3.2381037171887868e+01 -6 1 0
3968 444 1 4.1499999999999998e-01 1.2332957676473035e+00 8.7788695202896672e-01 3.0317056147976441e+01 3 -1 0
4354 444 2 -8.2999999999999996e-01 4.7704684344158732e+00 8.4190426862686729e-01 3.1744948577898722e+01 -1 5 0
1085 444 1 4.1499999999999998e-01 1.0993523414689824e+01 4.2709270448090724e+00 2.8229630411179997e+01 -1 4 0
2491 444 2 -8.2999999999999996e-01 2.3874561552200411e+00 5.6274799716116473e+00 2.6578918512572258e+01 -1 2 0
3101 444 1 4.1499999999999998e-01 7.0573519734571963e+00 3.8717912468951701e+00 2.5962722422980779e+01 1 -1 0
4171 444 2 -8.2999999999999996e-01 3.9874202723067992e-01 2.3778618252228509e-01 3.1584984205777655e+01 1 0 0
4111 444 2 -8.2999999999999996e-01 4.8277480175311149e+00 4.1655386871749780e+00 2.7542528277260516e+01 -2 -3 0
5771 444 1 4.1499999999999998e-01 1.0263901702458988e+01 5.2994896636583810e+00 2.6921559635290244e+01 -1 0 0
1084 444 2 -8.2999999999999996e-01 1.0135593622106976e+01 3.9171827627890896e+00 2.7994992853531855e+01 -1 4 0
3697 444 2 -8.2999999999999996e-01 8.8987094372222870e+00 1.0398800136900961e+00 2.9725052758832206e+01 -5 0 0
3100 444 2 -8.2999999999999996e-01 7.5521076858518130e+00 4.6893019220838887e+00 2.6018628777192955e+01 1 -1 0
3102 444 1 4.1499999999999998e-01 6.8829085581427512e+00 5.3718750922384020e+00 2.6068614648289035e+01 1 -1 0
2493 444 1 4.1499999999999998e-01 3.2463725145218012e+00 5.2199118891223826e+00 2.6690197599382078e+01 -1 2 0
1565 444 1 4.1499999999999998e-01 5.7650355003675529e+00 2.5871179252262753e+00 2.4702505790073328e+01 -8 1 0
5770 444 2 -8.2999999999999996e-01 1.0231378338221562e+01 6.1246911757776088e+00 2.6437600630549213e+01 -1 0 0
1566 444 1 4.1499999999999998e-01 5.7312843102386504e+00 1.6197655617302216e+00 2.5866544411640696e+01 -8 1 0
5772 444 1 4.1499999999999998e-01 9.3941935666917757e+00 6.0983494824104687e+00 2.5974286889021077e+01 -1 0 0
1916 444 1 4.1499999999999998e-01 4.1442541087166820e+00 2.7435351372703303e+00 3.0618016121084118e+01 0 1 0
1564 444 2 -8.2999999999999996e-01 5.9315720875643247e+00 2.5287644213954259e+00 2.5643299824661177e+01 -8 1 0
3801 444 1 4.1499999999999998e-01 8.3088531988033925e+00 1.7900604648060299e+00 2.6825801324412147e+01 4 -2 0
3967 444 2 -8.2999999999999996e-01 1.7490808816809198e+00 1.2303153394977062e+00 2.9591803232103409e+01 3 -1 0
1917 444 1 4.1499999999999998e-01 3.0533446991592439e+00 2.4906182870444544e+00 2.9599269326920194e+01 0 1 0
230 444 1 4.1499999999999998e-01 8.5488194264269950e+00 2.6038551191006105e+00 3.0353077744593698e+01 -4 1 0
1915 444 2 -8.2999999999999996e-01 3.7824353179289050e+00 3.0782968516534668e+00 2.9797495664778165e+01 0 1 0
229 444 2 -8.2999999999999996e-01 8.4447739005945142e+00 3.5545782993617840e+00 3.0313939079777299e+01 -4 1 0
2492 444 1 4.1499999999999998e-01 2.2803650018192907e+00 5.7066143392928730e+00 2.5631025498580360e+01 -1 2 0
231 444 1 4.1499999999999998e-01 9.0976224254891207e+00 3.8413586512310749e+00 2.9675364340243590e+01 -4 1 0
4113 444 1 4.1499999999999998e-01 4.4513844873077746e+00 3.5142121996162032e+00 2.8134437759135242e+01 -2 -3 0
5803 444 2 -8.2999999999999996e-01 4.6646635885081844e+00 4.3998610202861261e+00 3.2483662783284643e+01 -2 3 0
4112 444 1 4.1499999999999998e-01 5.0570928014431624e+00 3.6707913472541400e+00 2.6755852814202377e+01 -2 -3 0
3699 444 1 4.1499999999999998e-01 9.5946839351209903e+00 1.0806817289031445e+00 2.9069166691799968e+01 -5 0 0
1985 444 1 4.1499999999999998e-01 7.8244278500804478e+00 4.1933457397090352e+00 3.1644420991450424e+01 -6 1 0
3799 444 2 -8.2999999999999996e-01 8.8315804567302578e+00 1.3598904426774245e+00 2.6149087330652051e+01 4 -2 0
2904 444 1 4.1499999999999998e-01 6.0977088147683851e+00 4.9140542745254141e+00 2.8491373374164528e+01 1 0 0
2977 444 2 -8.2999999999999996e-01 1.1084356221813902e+00 6.5702261737876917e+00 3.0555685132965284e+01 -3 -1 0
4356 444 1 4.1499999999999998e-01 4.0742484083183559e+00 9.5063525602294319e-01 3.2392781799101904e+01 -1 5 0
2238 444 1 4.1499999999999998e-01 1.1084023489248946e+01 9.3696828525422571e-01 3.1462700090877913e+01 -1 -1 0
4268 444 1 4.1499999999999998e-01 1.4819617109419683e+00 4.0600355184460435e+00 2.7683354743632748e+01 -4 0 0
3800 444 1 4.1499999999999998e-01 9.6448060703541021e+00 1.1174314477232359e+00 2.6591930726275375e+01 4 -2 0
5616 444 1 4.1499999999999998e-01 4.7408833715068059e+00 6.2799967195088238e+00 2.4891870522998143e+01 2 -2 0
1687 444 2 -8.2999999999999996e-01 1.3818550972585970e+00 4.1992917915472656e+00 3.2492255330239480e+01 -3 1 0
2902 444 2 -8.2999999999999996e-01 6.7394130058218078e+00 5.3692549729681582e+00 2.9036570387215530e+01 1 0 0
1986 444 1 4.1499999999999998e-01 6.5282926215761377e+00 4.6559664250108046e+00 3.2275222676474002e+01 -6 1 0
1538 444 1 4.1499999999999998e-01 5.2787211382973762e+00 6.8907764912569314e-01 2.9903300239182347e+01 1 4 0
2903 444 1 4.1499999999999998e-01 7.3861994549970191e+00 4.6987677700495123e+00 2.9256447400810021e+01 1 0 0
1997 444 1 4.1499999999999998e-01 8.1614479282477905e+00 6.6347645643224631e+00 2.8726930749875780e+01 1 -2 0
5529 444 1 4.1499999999999998e-01 4.0643058247239156e-01 6.2242260966526173e+00 3.6974711741371408e+01 0 3 0
4250 444 1 4.1499999999999998e-01 2.5486930967732966e+00 4.8406647400432495e-01 3.4497266249245357e+01 -3 8 0
2311 444 2 -8.2999999999999996e-01 3.4366237527404446e+00 5.3413401926202413e+00 3.6485651541497695e+01 0 2 0
5804 444 1 4.1499999999999998e-01 4.9767833426508812e+00 4.4173468744989322e+00 3.3388376897061974e+01 -2 3 0
1283 444 1 4.1499999999999998e-01 7.0329465270988161e+00 7.5054604452488916e-01 3.4482459319643937e+01 -3 1 0
4049 444 1 4.1499999999999998e-01 9.8176524493418142e+00 4.6471331899417956e-01 3.4425992629321335e+01 -2 1 0
5528 444 1 4.1499999999999998e-01 5.0795171396264394e-01 5.1136110498947991e+00 3.7998490618691015e+01 0 3 0
391 444 2 -8.2999999999999996e-01 9.9297310871359823e+00 5.7956371917949276e+00 3.2843560651468707e+01 -2 -2 0
1675 444 2 -8.2999999999999996e-01 9.9964252929489739e+00 3.0891583168649323e-01 3.6081888392780293e+01 1 -1 0
5897 444 1 4.1499999999999998e-01 7.6194075099367407e+00 2.5993059591836700e+00 3.3351649234896591e+01 -2 3 0
1979 444 1 4.1499999999999998e-01 5.0941052090163881e+00 2.7000796214023084e+00 3.6284027242390842e+01 3 0 0
2099 444 1 4.1499999999999998e-01 1.4647638033347969e+00 1.2112811352663992e+00 3.2614154317686754e+01 -2 -1 0
5898 444 1 4.1499999999999998e-01 6.5577156955767508e+00 1.8859026972126034e+00 3.2541858388599941e+01 -2 3 0
1689 444 1 4.1499999999999998e-01 9.7389077839366522e-01 4.9085244763340263e+00 3.2989031037304500e+01 -3 1 0
2313 444 1 4.1499999999999998e-01 2.6081117562575353e+00 5.3945587238172772e+00 3.6962063129763770e+01 0 2 0
2009 444 1 4.1499999999999998e-01 6.1463648889803331e+00 6.5412212280189195e+00 3.8265681780300163e+01 1 -7 0
5527 444 2 -8.2999999999999996e-01 6.7480885574025551e-01 5.3111164099882737e+00 3.7076871241981834e+01 0 3 0
2100 444 1 4.1499999999999998e-01 1.9810093286671400e+00 2.5684273383472092e+00 3.3042569712798290e+01 -2 -1 0
1677 444 1 4.1499999999999998e-01 1.0208959380509377e+01 7.4603681946002043e-01 3.6906501246602240e+01 1 -1 0
5805 444 1 4.1499999999999998e-01 3.9019647070817083e+00 3.8218413188637363e+00 3.2504050481900478e+01 -2 3 0
2312 444 1 4.1499999999999998e-01 3.4800016240014715e+00 4.4352460514268808e+00 3.6180127776170082e+01 0 2 0
1980 444 1 4.1499999999999998e-01 4.0062971859793031e+00 2.0596105560436762e+00 3.5448343093348768e+01 3 0 0
1978 444 2 -8.2999999999999996e-01 4.3104204098194083e+00 2.9065204263600735e+00 3.5774662874353218e+01 3 0 0
4048 444 2 -8.2999999999999996e-01 9.7938992880242211e+00 4.5493726446391686e-01 3.3469137329209140e+01 -2 1 0
2098 444 2 -8.2999999999999996e-01 2.2083036585583482e+00 1.6386109167910095e+00 3.3039324347271844e+01 -2 -1 0
5896 444 2 -8.2999999999999996e-01 6.7706346441586733e+00 2.1642612628992417e+00 3.3432596222096237e+01 -2 3 0
393 444 1 4.1499999999999998e-01 9.0334470624884187e+00 5.4602514264028343e+00 3.2864127107475262e+01 -2 -2 0
2010 444 1 4.1499999999999998e-01 5.1541677231291594e+00 6.2126513567647308e+00 3.7170473123742418e+01 1 -7 0
663 444 1 4.1499999999999998e-01 1.1247307107099614e+01 3.6050956832621317e+00 3.4149618115602273e+01 -2 -2 0
5980 444 2 -8.2999999999999996e-01 1.1325549086484740e+01 8.7278939598382244e-01 3.8352637035813693e+01 -2 -4 0
215 444 1 4.1499999999999998e-01 3.8044348964360615e+00 6.6747017120181127e+00 3.4976136254559535e+01 1 1 0
6040 444 4 0.0000000000000000e+00 4.2285000000000004e+00 7.3259299999999996e+00 0.0000000000000000e+00 0 0 0
6042 444 4 -7.6390000000000000e-02 4.2285500000000003e+00 7.3259299999999996e+00 7.1781499999999996e+00 0 0 0
6043 444 4 0.0000000000000000e+00 2.5366499999999998e+00 7.3259299999999996e+00 2.3926400000000001e+00 0 0 0
6045 444 4 0.0000000000000000e+00 8.4509000000000001e-01 7.3259299999999996e+00 4.7824200000000001e+00 0 0 0
6171 444 4 0.0000000000000000e+00 7.6121999999999996e+00 7.3259299999999996e+00 2.3926400000000001e+00 0 0 0
6173 444 4 0.0000000000000000e+00 5.9206399999999997e+00 7.3259299999999996e+00 4.7824200000000001e+00 0 0 0
6047 444 4 0.0000000000000000e+00 1.6907200000000000e+00 8.7911099999999998e+00 0.0000000000000000e+00 0 0 0
6048 444 4 0.0000000000000000e+00 4.2285000000000004e+00 1.0256300000000000e+01 0.0000000000000000e+00 0 0 0
6049 444 4 -7.6390000000000000e-02 1.6907700000000001e+00 8.7911099999999998e+00 7.1781899999999998e+00 0 0 0
6050 444 4 -7.6390000000000000e-02 4.2285500000000003e+00 1.0256300000000000e+01 7.1781600000000001e+00 0 0 0
6051 444 4 0.0000000000000000e+00 2.5366499999999998e+00 1.0256300000000000e+01 2.3926400000000001e+00 0 0 0
6052 444 4 0.0000000000000000e+00 5.0744199999999999e+00 8.7911099999999998e+00 2.3926400000000001e+00 0 0 0