LAMMPS data file via write_data, version 11 Aug 2017, timestep = 500000

7192 atoms
4 atom types
4000 bonds
1 bond types
2000 angles
1 angle types

0.0000000000000000e+00 4.5679949999999998e+01 xlo xhi
0.0000000000000000e+00 4.6885919999999999e+01 ylo yhi
0.0000000000000000e+00 6.5000000000000000e+01 zlo zhi

Masses

1 1.0079
2 15.9994
3 22.9898
4 107.868

Bond Coeffs # harmonic

1 450 0.9572

Angle Coeffs # harmonic

1 55 104.52

Atoms # full

6041 444 4 0.0000000000000000e+00 1.6907200000000000e+00 0.0000000000000000e+00 0.0000000000000000e+00 0 0 0
6042 444 4 0.0000000000000000e+00 4.2285000000000004e+00 1.4651900000000000e+00 0.0000000000000000e+00 0 0 0
6043 444 4 -1.3889000000000001e-01 1.6907700000000001e+00 0.0000000000000000e+00 7.1781499999999996e+00 0 0 0
6044 444 4 -1.3889000000000001e-01 4.2285500000000003e+00 1.4651900000000000e+00 7.1781499999999996e+00 0 0 0
6045 444 4 0.0000000000000000e+00 2.5366499999999998e+00 1.4651900000000000e+00 2.3926400000000001e+00 0 0 0
6046 444 4 0.0000000000000000e+00 5.0744199999999999e+00 0.0000000000000000e+00 2.3926400000000001e+00 0 0 0
6047 444 4 0.0000000000000000e+00 8.4509000000000001e-01 1.4651900000000000e+00 4.7824200000000001e+00 0 0 0
6048 444 4 0.0000000000000000e+00 3.3828600000000000e+00 0.0000000000000000e+00 4.7824499999999999e+00 0 0 0
6049 444 4 0.0000000000000000e+00 1.6907200000000000e+00 2.9303699999999999e+00 0.0000000000000000e+00 0 0 0
6050 444 4 0.0000000000000000e+00 4.2285000000000004e+00 4.3955599999999997e+00 0.0000000000000000e+00 0 0 0
6051 444 4 -1.3889000000000001e-01 1.6907700000000001e+00 2.9303699999999999e+00 7.1781899999999998e+00 0 0 0
6052 444 4 -1.3889000000000001e-01 4.2285500000000003e+00 4.3955599999999997e+00 7.1781600000000001e+00 0 0 0
6053 444 4 0.0000000000000000e+00 2.5366499999999998e+00 4.3955599999999997e+00 2.3926400000000001e+00 0 0 0
6054 444 4 0.0000000000000000e+00 5.0744199999999999e+00 2.9303699999999999e+00 2.3926400000000001e+00 0 0 0
6055 444 4 0.0000000000000000e+00 8.4509000000000001e-01 4.3955599999999997e+00 4.7824499999999999e+00 0 0 0
6056 444 4 0.0000000000000000e+00 3.3828700000000000e+00 2.9303699999999999e+00 4.7824400000000002e+00 0 0 0
4471 444 2 -8.2999999999999996e-01 1.8615641952221806e+00 4.5465327790247620e+00 1.0298724941821762e+01 0 0 0
6038 444 3 1.0000000000000000e+00 1.4452830524013200e+00 2.6325093078197814e+00 1.1531502868393188e+01 1 1 0
4473 444 1 4.1499999999999998e-01 2.0208616435990794e+00 4.4654698394084056e+00 9.3583606287102850e+00 0 0 0
4772 444 1 4.1499999999999998e-01 2.9366146984394788e+00 1.0759751199328114e+00 9.0876719643116548e+00 1 0 0
4508 444 1 4.1499999999999998e-01 3.6112197005598916e+00 7.8234557501632984e-01 1.5832434046648231e+01 1 0 0
4773 444 1 4.1499999999999998e-01 3.4474592017523298e+00 2.4220872086680978e+00 9.5555558671151424e+00 1 0 0
4771 444 2 -8.2999999999999996e-01 3.0894210415177823e+00 1.5947807721211433e+00 9.8774335838692888e+00 1 0 0
2007 444 1 4.1499999999999998e-01 4.1842959617332811e+00 3.8547590074283642e+00 1.4063429922418649e+01 1 0 0
1054 444 2 -8.2999999999999996e-01 1.9841516182760228e+00 6.2175905410392851e-01 1.2608517369177999e+01 1 -1 0
1056 444 1 4.1499999999999998e-01 1.1748893795545827e+00 1.1152146805373069e-01 1.2577136613060674e+01 1 -1 0
2006 444 1 4.1499999999999998e-01 5.2025602886486642e+00 4.9615826276809720e+00 1.4236564659947701e+01 1 0 0
281 444 1 4.1499999999999998e-01 2.1192660385170044e-02 5.1868781768910619e+00 1.0046796687592536e+01 1 0 0
4472 444 1 4.1499999999999998e-01 2.2272678737990561e+00 5.3999729714430620e+00 1.0531389047512473e+01 0 0 0
118 444 2 -8.2999999999999996e-01 2.6428139156219226e+00 3.1444522565156241e+00 1.3797005774878579e+01 1 0 0
119 444 1 4.1499999999999998e-01 1.9885677099367129e+00 3.4302507810076186e+00 1.4434589461955566e+01 1 0 0
120 444 1 4.1499999999999998e-01 3.0162309278455841e+00 2.3489656321937784e+00 1.4176469417319614e+01 1 0 0
4679 444 1 4.1499999999999998e-01 1.2977447292794635e+00 4.9248085895299720e+00 1.6086856807887632e+01 0 1 0
4891 444 2 -8.2999999999999996e-01 5.1427903398807722e+00 4.5957177955333348e+00 1.0055840114123942e+01 1 0 0
6015 444 3 1.0000000000000000e+00 4.3969857637235128e+00 2.8734645163580808e-01 1.1403555230679025e+01 0 1 0
1055 444 1 4.1499999999999998e-01 2.4355035919062518e+00 3.0791243699394860e-01 1.3392107722688072e+01 1 -1 0
4387 444 2 -8.2999999999999996e-01 1.3968178707784448e-01 9.5393856328915616e-01 1.0140334710876800e+01 0 0 0
4388 444 1 4.1499999999999998e-01 8.1521068935671681e-02 8.9357786715046339e-01 9.1868117382198378e+00 0 0 0
4893 444 1 4.1499999999999998e-01 4.3945011165396375e+00 5.1925853026445843e+00 1.0062512162746097e+01 1 0 0
4507 444 2 -8.2999999999999996e-01 3.7488649557154861e+00 9.6479991859299330e-01 1.4902919608194722e+01 1 0 0
4115 444 1 4.1499999999999998e-01 5.2516430890109209e+00 3.3751719151851329e+00 1.6056654621061142e+01 1 -1 0
4509 444 1 4.1499999999999998e-01 4.5593558508795748e+00 5.0433226262451680e-01 1.4685419589792733e+01 1 0 0
2005 444 2 -8.2999999999999996e-01 5.0875228720176455e+00 4.0165276340098774e+00 1.4335909996700492e+01 1 0 0
4892 444 1 4.1499999999999998e-01 5.4231668748133695e+00 4.5725831547196947e+00 9.1409160610066316e+00 1 0 0
3045 444 1 4.1499999999999998e-01 5.5484308766910626e+00 1.7781465940836492e+00 9.1427552865451229e+00 1 1 0
3043 444 2 -8.2999999999999996e-01 5.7037874024720647e+00 1.7766567563690974e+00 1.0087262963423225e+01 1 1 0
4678 444 2 -8.2999999999999996e-01 1.7314233502900895e+00 4.0908420366732043e+00 1.6267562467404684e+01 0 1 0
5836 444 2 -8.2999999999999996e-01 1.3452163427839530e+00 5.1290487704942151e+00 2.1039927858066310e+01 1 0 0
5340 444 1 4.1499999999999998e-01 1.3051437955037948e+00 3.1960818011349894e+00 1.7607957525849876e+01 2 0 0
5339 444 1 4.1499999999999998e-01 1.1559718421375165e+00 3.7609258191685511e+00 1.9004594351737264e+01 2 0 0
1919 444 1 4.1499999999999998e-01 4.5871639230843204e+00 4.5303804049930800e+00 1.8077689769599019e+01 0 -1 0
4360 444 2 -8.2999999999999996e-01 3.3896667976942223e+00 2.3913307361468344e-01 1.7603137781843870e+01 0 1 0
4680 444 1 4.1499999999999998e-01 2.5068405457566523e+00 4.3287608512268285e+00 1.6775848599294324e+01 0 1 0
1918 444 2 -8.2999999999999996e-01 3.6331123670305683e+00 4.4938063617017558e+00 1.8146103263078746e+01 0 -1 0
4570 444 2 -8.2999999999999996e-01 2.3206754612584888e+00 1.0905750289174487e+00 1.9817001643443898e+01 0 0 0
5338 444 2 -8.2999999999999996e-01 1.0035826216768977e+00 2.9697815136484884e+00 1.8487776786226441e+01 2 0 0
4572 444 1 4.1499999999999998e-01 2.6530706816029865e+00 1.6758707101165489e+00 2.0497570712344721e+01 0 0 0
4116 444 1 4.1499999999999998e-01 4.5674898800128370e+00 2.1158248897177705e+00 1.6544378741028147e+01 1 -1 0
4931 444 1 4.1499999999999998e-01 2.6676337758233224e+00 2.7275059018090535e+00 2.2707385234828049e+01 0 1 0
4571 444 1 4.1499999999999998e-01 1.7203302960430797e+00 1.6333380268894699e+00 1.9305898960604488e+01 0 0 0
4930 444 2 -8.2999999999999996e-01 2.9003373124248637e+00 3.0170553523174877e+00 2.1825204690203662e+01 0 1 0
4932 444 1 4.1499999999999998e-01 2.2557993682458517e+00 3.6933361095416926e+00 2.1616761314193692e+01 0 1 0
4712 444 1 4.1499999999999998e-01 4.5266529851673907e+00 2.7671675276817602e+00 2.1222964771130279e+01 -1 -1 0
4711 444 2 -8.2999999999999996e-01 5.3750117381847131e+00 2.5154331435154340e+00 2.0858066487640176e+01 -1 -1 0
275 444 1 4.1499999999999998e-01 4.8569417681158065e+00 4.7799104266402210e+00 2.3868821921658476e+01 2 0 0
4362 444 1 4.1499999999999998e-01 3.1681679933571529e+00 7.8354283564777272e-01 1.8358643045544611e+01 0 1 0
5837 444 1 4.1499999999999998e-01 4.1447838736532544e-01 4.9933684682870183e+00 2.0862305291271277e+01 1 0 0
2329 444 2 -8.2999999999999996e-01 2.4447152536062307e+00 1.1422382112548286e+00 2.4361544950690590e+01 1 0 0
4114 444 2 -8.2999999999999996e-01 5.3438928875170886e+00 2.6580155186992656e+00 1.6683878260809237e+01 1 -1 0
1992 444 1 4.1499999999999998e-01 4.9923783941895961e+00 2.9054380275022196e-01 2.3969437225556639e+01 2 1 0
1920 444 1 4.1499999999999998e-01 3.4548266201590088e+00 4.6094524902788887e+00 1.9079415832888277e+01 0 -1 0
274 444 2 -8.2999999999999996e-01 5.2544141442475336e+00 3.9170320869650301e+00 2.3751822539167634e+01 2 0 0
512 444 1 4.1499999999999998e-01 9.5917379239859057e-01 4.0174983358321148e-01 2.1030589529377753e+01 0 1 0
4713 444 1 4.1499999999999998e-01 5.6849507779320607e+00 3.3008860692420039e+00 2.0407252026805033e+01 -1 -1 0
679 444 2 -8.2999999999999996e-01 3.9094074258045777e+00 5.2500036402572734e+00 3.1532293790477304e+01 1 1 0
4636 444 2 -8.2999999999999996e-01 1.7409822326935204e-01 8.7031800089305933e-01 2.7429426953681986e+01 1 1 0
5289 444 1 4.1499999999999998e-01 5.5751821977248639e+00 1.8288024731496905e-01 3.0359256639151521e+01 -1 2 0
1333 444 2 -8.2999999999999996e-01 1.3578475906365530e+00 4.4085909562810743e-01 3.2186988278621882e+01 1 2 0
4197 444 1 4.1499999999999998e-01 1.6130096608831237e+00 3.8257904917494878e+00 2.7559479438162764e+01 1 2 0
2331 444 1 4.1499999999999998e-01 2.4594675633820291e+00 3.0344887929630693e-01 2.4822464362040186e+01 1 0 0
1334 444 1 4.1499999999999998e-01 1.6525970787823048e+00 1.3361080551733464e+00 3.2020003488805720e+01 1 2 0
4195 444 2 -8.2999999999999996e-01 1.3027544846671895e+00 4.6105216453513442e+00 2.7107626312447607e+01 1 2 0
231 444 1 4.1499999999999998e-01 1.3240905787272093e+00 4.4141159139960990e+00 2.5396950287472205e+01 1 1 0
4161 444 1 4.1499999999999998e-01 2.5917328075308485e-02 4.6450431742610467e+00 3.1062306498229390e+01 1 0 0
2896 444 2 -8.2999999999999996e-01 5.1918125354640132e+00 3.6685024021607950e+00 2.6626907469489101e+01 2 2 0
2898 444 1 4.1499999999999998e-01 4.5458468799103455e+00 3.0526784691640194e+00 2.6972915059106167e+01 2 2 0
229 444 2 -8.2999999999999996e-01 1.2598197640062692e+00 4.0013223172390919e+00 2.4535728202024394e+01 1 1 0
2561 444 1 4.1499999999999998e-01 2.5882060719508870e+00 2.2519943305372014e+00 2.8858429816774535e+01 1 0 0
1990 444 2 -8.2999999999999996e-01 4.9761084364676540e+00 1.1174593761795861e+00 2.4451285581286090e+01 2 1 0
2562 444 1 4.1499999999999998e-01 1.8146618003517718e+00 1.6861983030787526e+00 2.7686508422376743e+01 1 0 0
4214 444 1 4.1499999999999998e-01 2.4971536552450364e+00 3.8703006723828315e+00 3.2206015577068563e+01 2 0 0
4215 444 1 4.1499999999999998e-01 1.1936209820940229e+00 3.1033663703341809e+00 3.2273174093572351e+01 2 0 0
2560 444 2 -8.2999999999999996e-01 2.5951759767838025e+00 2.1963118661983843e+00 2.7902875955622189e+01 1 0 0
4213 444 2 -8.2999999999999996e-01 2.1404635184870653e+00 2.9820487058941070e+00 3.2202434804367492e+01 2 0 0
698 444 1 4.1499999999999998e-01 5.0103906412879367e+00 9.9866240854793376e-01 2.7266211329151712e+01 0 1 0
697 444 2 -8.2999999999999996e-01 5.0850501499174490e+00 4.5226268227826848e-02 2.7225991156806668e+01 0 1 0
1947 444 1 4.1499999999999998e-01 2.5579832232743738e+00 5.2439902462454757e+00 2.4384917315015731e+01 0 1 0
2330 444 1 4.1499999999999998e-01 3.3471344372391654e+00 1.4579042094981218e+00 2.4408730574592692e+01 1 0 0
230 444 1 4.1499999999999998e-01 1.6490503943643529e+00 3.1350287417473788e+00 2.4655173545956398e+01 1 1 0
680 444 1 4.1499999999999998e-01 4.6756911122164135e+00 4.8744395603619211e+00 3.1098711650559299e+01 1 1 0
4196 444 1 4.1499999999999998e-01 1.5550999198442501e+00 5.3336305736772411e+00 2.7681793782367059e+01 1 2 0
276 444 1 4.1499999999999998e-01 5.4008513468741377e+00 3.5975426854680088e+00 2.4642168006321548e+01 2 0 0
302 444 1 4.1499999999999998e-01 5.5127676878600660e+00 2.8499793045606103e+00 3.1489863002223327e+01 1 2 0
3521 444 1 4.1499999999999998e-01 5.5740138225640230e+00 5.6018630488829855e+00 2.7139158645353159e+01 0 0 0
5562 444 1 4.1499999999999998e-01 4.9794997864244968e+00 5.0120012501520952e+00 3.5126729122375764e+01 0 1 0
27 444 1 4.1499999999999998e-01 3.4318405167437707e+00 2.7051401179460739e+00 3.4768380071630801e+01 -2 0 0
4699 444 2 -8.2999999999999996e-01 5.0536324452005710e+00 2.3207532941698836e-01 3.5904412508807532e+01 1 0 0
25 444 2 -8.2999999999999996e-01 4.3109380594198816e+00 3.0786614562036680e+00 3.4830840042822103e+01 -2 0 0
303 444 1 4.1499999999999998e-01 5.3019361737906969e+00 3.0229172084363043e+00 3.2979003137016008e+01 1 2 0
26 444 1 4.1499999999999998e-01 4.7627513589386821e+00 2.5239612552488029e+00 3.5466768053046628e+01 -2 0 0
5560 444 2 -8.2999999999999996e-01 5.4011892504190522e+00 5.7120650345197399e+00 3.4628411114390502e+01 0 1 0
1335 444 1 4.1499999999999998e-01 1.9743356494580264e+00 1.0240853057719938e-01 3.2836315308400550e+01 1 2 0
6057 444 4 0.0000000000000000e+00 1.6907200000000000e+00 5.8607399999999998e+00 0.0000000000000000e+00 0 0 0
6058 444 4 0.0000000000000000e+00 4.2285000000000004e+00 7.3259299999999996e+00 0.0000000000000000e+00 0 0 0
6059 444 4 -1.3889000000000001e-01 1.6907700000000001e+00 5.8607399999999998e+00 7.1781499999999996e+00 0 0 0
6060 444 4 -1.3889000000000001e-01 4.2285500000000003e+00 7.3259299999999996e+00 7.1781499999999996e+00 0 0 0
6061 444 4 0.0000000000000000e+00 2.5366499999999998e+00 7.3259299999999996e+00 2.3926400000000001e+00 0 0 0
6062 444 4 0.0000000000000000e+00 5.0744199999999999e+00 5.8607399999999998e+00 2.3926400000000001e+00 0 0 0
6063 444 4 0.0000000000000000e+00 8.4509000000000001e-01 7.3259299999999996e+00 4.7824200000000001e+00 0 0 0
6064 444 4 0.0000000000000000e+00 3.3828600000000000e+00 5.8607399999999998e+00 4.7824499999999999e+00 0 0 0
6065 444 4 0.0000000000000000e+00 1.6907200000000000e+00 8.7911099999999998e+00 0.0000000000000000e+00 0 0 0
6066 444 4 0.0000000000000000e+00 4.2285000000000004e+00 1.0256300000000000e+01 0.0000000000000000e+00 0 0 0
6067 444 4 -1.3889000000000001e-01 1.6907700000000001e+00 8.7911099999999998e+00 7.1781899999999998e+00 0 0 0
6068 444 4 -1.3889000000000001e-01 4.2285500000000003e+00 1.0256300000000000e+01 7.1781600000000001e+00 0 0 0
6069 444 4 0.0000000000000000e+00 2.5366499999999998e+00 1.0256300000000000e+01 2.3926400000000001e+00 0 0 0
6070 444 4 0.0000000000000000e+00 5.0744199999999999e+00 8.7911099999999998e+00 2.3926400000000001e+00 0 0 0
6071 444 4 0.0000000000000000e+00 8.4509000000000001e-01 1.0256300000000000e+01 4.7824499999999999e+00 0 0 0
6072 444 4 0.0000000000000000e+00 3.3828700000000000e+00 8.7911099999999998e+00 4.7824400000000002e+00 0 0 0
6029 444 3 1.0000000000000000e+00 1.1491554257212324e+00 1.0550946476229285e+01 1.1309647506902232e+01 1 0 0
2065 444 2 -8.2999999999999996e-01 3.2660920956649919e+00 1.0098023610505452e+01 1.0046531529039280e+01 2 -1 0
2067 444 1 4.1499999999999998e-01 3.1898920764874155e+00 1.0273153971124893e+01 9.1085790780015632e+00 2 -1 0
1363 444 2 -8.2999999999999996e-01 2.0825114062160979e+00 9.5161956497903173e+00 1.3304391358178931e+01 2 0 0
2066 444 1 4.1499999999999998e-01 4.0003837090993333e+00 9.4881448525443162e+00 1.0117915101783195e+01 2 -1 0
1365 444 1 4.1499999999999998e-01 1.9880144474040109e+00 9.2787559567624580e+00 1.4226847484161716e+01 2 0 0
3955 444 2 -8.2999999999999996e-01 2.9669131483691289e+00 6.9206962967487584e+00 1.0301690405024123e+01 1 1 0
1364 444 1 4.1499999999999998e-01 2.9022708115528779e+00 1.0008908755594483e+01 1.3266166649661381e+01 2 0 0
3956 444 1 4.1499999999999998e-01 3.8056057950469357e+00 7.2981360491677645e+00 1.0036423488385786e+01 1 1 0
3957 444 1 4.1499999999999998e-01 2.3396727429162585e+00 7.6370997444646740e+00 1.0203873031239324e+01 1 1 0
2982 444 1 4.1499999999999998e-01 5.4206264340712389e+00 8.2262917952243804e+00 1.1971223909054903e+01 1 1 0
5563 444 2 -8.2999999999999996e-01 2.2993901354485833e+00 9.5651353789794555e+00 1.6037942626664275e+01 -1 -1 0
1339 444 2 -8.2999999999999996e-01 4.3391902994798786e+00 1.1112939340997551e+01 1.2655574066547191e+01 1 0 0
1340 444 1 4.1499999999999998e-01 4.6939338280794605e+00 1.1191598811879947e+01 1.1770022037723452e+01 1 0 0
4104 444 1 4.1499999999999998e-01 8.6750673512460486e-01 8.3780838029708882e+00 9.1950065096101845e+00 0 1 0
91 444 2 -8.2999999999999996e-01 5.2446694976779815e+00 8.3120886926268760e+00 9.8299434741848515e+00 -1 1 0
5565 444 1 4.1499999999999998e-01 1.7980351822571217e+00 1.0379195790579013e+01 1.6084654268577744e+01 -1 -1 0
2366 444 1 4.1499999999999998e-01 2.0410110698742980e+00 6.7074036623396642e+00 1.2868404587760457e+01 -1 2 0
2365 444 2 -8.2999999999999996e-01 1.1637991240563685e+00 6.4267285528996112e+00 1.3129082318036422e+01 -1 2 0
4102 444 2 -8.2999999999999996e-01 6.1632657234042054e-01 8.5630830785705037e+00 1.0099946394412232e+01 0 1 0
2783 444 1 4.1499999999999998e-01 1.3728421198605432e+00 6.8448022632033600e+00 1.4938170147670940e+01 1 0 0
2782 444 2 -8.2999999999999996e-01 1.5603929093308500e+00 6.7783597294580451e+00 1.5874462313333522e+01 1 0 0
2784 444 1 4.1499999999999998e-01 2.0481220651150438e+00 7.5762491194971044e+00 1.6078730588284241e+01 1 0 0
92 444 1 4.1499999999999998e-01 5.1915337050758810e+00 7.7864491577697530e+00 9.0317507742335454e+00 -1 1 0
2367 444 1 4.1499999999999998e-01 7.3939931452295449e-01 6.1733814837768675e+00 1.2309367469292113e+01 -1 2 0
5564 444 1 4.1499999999999998e-01 3.1753043465676485e+00 9.8050476684105252e+00 1.6340349109537311e+01 -1 -1 0
4121 444 1 4.1499999999999998e-01 8.1142126526452119e-01 6.6321828357191333e+00 1.7482835872738463e+01 0 0 0
947 444 1 4.1499999999999998e-01 5.0518243764376507e+00 1.0360918969296252e+01 2.0296187062034296e+01 0 2 0
575 444 1 4.1499999999999998e-01 2.8157592627705750e+00 7.0213979823078727e+00 2.2877234302498433e+01 1 0 0
574 444 2 -8.2999999999999996e-01 2.5736200587466693e+00 7.7230151201213539e+00 2.2272805747822730e+01 1 0 0
4122 444 1 4.1499999999999998e-01 1.4772062770015753e+00 7.3988807616964376e+00 1.8605689483761434e+01 0 0 0
2919 444 1 4.1499999999999998e-01 4.4860803358096764e+00 1.1322873653369419e+01 1.7153128369416770e+01 0 0 0
873 444 1 4.1499999999999998e-01 1.2786708930147932e+00 1.1014074276531300e+01 2.4351300284858020e+01 0 0 0
3626 444 1 4.1499999999999998e-01 4.0364624428700537e+00 9.8256711300261426e+00 2.3835579515244433e+01 1 1 0
4294 444 2 -8.2999999999999996e-01 1.1773259007531329e+00 1.0311498235473515e+01 2.0577088212666521e+01 4 0 0
2917 444 2 -8.2999999999999996e-01 4.7411696076717593e+00 1.0450278559149163e+01 1.6853563411561598e+01 0 0 0
1974 444 1 4.1499999999999998e-01 2.6989524896607580e+00 7.6042308071216462e+00 2.0698087902175711e+01 0 2 0
1945 444 2 -8.2999999999999996e-01 2.9747254652089601e+00 6.1016587229767092e+00 2.4301472835672161e+01 0 1 0
946 444 2 -8.2999999999999996e-01 4.5079712157107084e+00 9.5734108534595528e+00 2.0313132512626051e+01 0 2 0
948 444 1 4.1499999999999998e-01 5.0712035949817276e+00 8.9009899228947571e+00 2.0696345922681758e+01 0 2 0
1973 444 1 4.1499999999999998e-01 3.4460903418462410e+00 8.3354708043418437e+00 1.9603113782196836e+01 0 2 0
4296 444 1 4.1499999999999998e-01 1.4830834578444054e+00 9.6871975065894027e+00 1.9919066224012582e+01 4 0 0
1972 444 2 -8.2999999999999996e-01 2.8451548470929260e+00 7.6054667777268827e+00 1.9752119854506642e+01 0 2 0
4295 444 1 4.1499999999999998e-01 1.7988543205000018e+00 1.1037672157666833e+01 2.0526028299930953e+01 4 0 0
2918 444 1 4.1499999999999998e-01 5.5361718339470265e+00 1.0249839923799598e+01 1.7347554988293108e+01 0 0 0
576 444 1 4.1499999999999998e-01 1.9370622013432071e+00 8.2483754201434483e+00 2.2757596964588071e+01 1 0 0
4120 444 2 -8.2999999999999996e-01 6.3085646609975565e-01 7.0515368041352851e+00 1.8324127278683697e+01 0 0 0
5838 444 1 4.1499999999999998e-01 1.5180711396357238e+00 6.0229912902006708e+00 2.0744597294689516e+01 1 0 0
4 444 2 -8.2999999999999996e-01 2.4395322676199012e+00 8.2255452611646742e+00 3.1049169991425575e+01 -1 1 0
4548 444 1 4.1499999999999998e-01 3.2044434842660875e-02 9.3761314504406865e+00 2.6403743445351392e+01 -3 2 0
4883 444 1 4.1499999999999998e-01 2.3031329710633099e+00 1.1337322357221202e+01 3.1160914931341523e+01 0 2 0
1823 444 1 4.1499999999999998e-01 3.0145417227466029e+00 1.1154366654538928e+01 2.8620305910050767e+01 1 1 0
4547 444 1 4.1499999999999998e-01 1.3674047626611292e+00 8.6980433327804239e+00 2.6182599703739257e+01 -3 2 0
681 444 1 4.1499999999999998e-01 3.8077210685706189e+00 6.1143174245535432e+00 3.1133729321596448e+01 1 1 0
3520 444 2 -8.2999999999999996e-01 5.6107342150759383e+00 6.3365035341149873e+00 2.7751683621859975e+01 0 0 0
1824 444 1 4.1499999999999998e-01 1.9666821842960931e+00 1.0076081762884948e+01 2.8796905232204370e+01 1 1 0
3625 444 2 -8.2999999999999996e-01 4.3457392965517432e+00 9.4889100262930679e+00 2.4676514776401348e+01 1 1 0
3629 444 1 4.1499999999999998e-01 4.7594956559035166e+00 1.1674865188474799e+01 2.5481691021312866e+01 -1 1 0
2297 444 1 4.1499999999999998e-01 1.7909235355032049e+00 7.4395533070872570e+00 2.9386229014754822e+01 -1 0 0
1385 444 1 4.1499999999999998e-01 6.8116915138326428e-01 7.8431306068535314e+00 3.1916960986455280e+01 0 -1 0
1310 444 1 4.1499999999999998e-01 4.1805709666551278e+00 8.7635700012234352e+00 2.6155026194534265e+01 0 0 0
3522 444 1 4.1499999999999998e-01 4.9908775638249052e+00 6.9746703547092377e+00 2.7398480046960636e+01 0 0 0
6 444 1 4.1499999999999998e-01 2.2068608804777998e+00 9.1347274857808181e+00 3.1237544295858850e+01 -1 1 0
2752 444 2 -8.2999999999999996e-01 5.4526060276244905e+00 8.0920616166927815e+00 3.0770519971753256e+01 -1 0 0
5 444 1 4.1499999999999998e-01 3.3943739767992143e+00 8.2040576089207544e+00 3.1112795448499167e+01 -1 1 0
1309 444 2 -8.2999999999999996e-01 3.9105040083705394e+00 8.2185020379512679e+00 2.6894078541635931e+01 0 0 0
1946 444 1 4.1499999999999998e-01 3.2241373868052263e+00 6.3352969261226892e+00 2.5195586236077443e+01 0 1 0
4884 444 1 4.1499999999999998e-01 8.3395240841079754e-01 1.1343141737269949e+01 3.1526113361645880e+01 0 2 0
1311 444 1 4.1499999999999998e-01 3.5960285064904256e+00 8.8413578089666220e+00 2.7549356131215621e+01 0 0 0
4882 444 2 -8.2999999999999996e-01 1.5094633529221890e+00 1.0804260447921422e+01 3.1114380649351659e+01 0 2 0
2296 444 2 -8.2999999999999996e-01 1.3272446243327456e+00 6.7991377454387756e+00 2.8846690137057980e+01 -1 0 0
2298 444 1 4.1499999999999998e-01 6.4322011189036998e-01 6.4528689205903591e+00 2.9419787616796281e+01 -1 0 0
3627 444 1 4.1499999999999998e-01 5.2342848124795216e+00 9.1801977664082628e+00 2.4499267051764090e+01 1 1 0
1822 444 2 -8.2999999999999996e-01 2.8213495483196898e+00 1.0243212101678843e+01 2.8399610048675420e+01 1 1 0
4546 444 2 -8.2999999999999996e-01 7.0562407512307579e-01 9.2292032426683654e+00 2.5739714476536491e+01 -3 2 0
2940 444 1 4.1499999999999998e-01 5.1914940923210393e+00 1.0282320413700141e+01 2.7134383597878696e+01 0 1 0
4030 444 2 -8.2999999999999996e-01 5.7402645488304693e-01 1.1051435417435282e+01 3.5391167047305188e+01 0 0 0
4031 444 1 4.1499999999999998e-01 9.2106515712008530e-01 1.0388782248561183e+01 3.5988399747032183e+01 0 0 0
5561 444 1 4.1499999999999998e-01 4.6765724060838734e+00 6.1870775996942236e+00 3.4221562928044854e+01 0 1 0
6073 444 4 0.0000000000000000e+00 1.6907200000000000e+00 1.1721480000000000e+01 0.0000000000000000e+00 0 0 0
6074 444 4 0.0000000000000000e+00 4.2285000000000004e+00 1.3186669999999999e+01 0.0000000000000000e+00 0 0 0
6075 444 4 -1.3889000000000001e-01 1.6907700000000001e+00 1.1721480000000000e+01 7.1781499999999996e+00 0 0 0
6076 444 4 -1.3889000000000001e-01 4.2285500000000003e+00 1.3186669999999999e+01 7.1781499999999996e+00 0 0 0
6077 444 4 0.0000000000000000e+00 2.5366499999999998e+00 1.3186669999999999e+01 2.3926400000000001e+00 0 0 0
6078 444 4 0.0000000000000000e+00 5.0744199999999999e+00 1.1721480000000000e+01 2.3926400000000001e+00 0 0 0
6079 444 4 0.0000000000000000e+00 8.4509000000000001e-01 1.3186669999999999e+01 4.7824200000000001e+00 0 0 0
6080 444 4 0.0000000000000000e+00 3.3828600000000000e+00 1.1721480000000000e+01 4.7824499999999999e+00 0 0 0
6081 444 4 0.0000000000000000e+00 1.6907200000000000e+00 1.4651850000000000e+01 0.0000000000000000e+00 0 0 0
6083 444 4 -1.3889000000000001e-01 1.6907700000000001e+00 1.4651850000000000e+01 7.1781899999999998e+00 0 0 0
6086 444 4 0.0000000000000000e+00 5.0744199999999999e+00 1.4651850000000000e+01 2.3926400000000001e+00 0 0 0
6088 444 4 0.0000000000000000e+00 3.3828700000000000e+00 1.4651850000000000e+01 4.7824400000000002e+00 0 0 0
6082 444 4 0.0000000000000000e+00 4.2285000000000004e+00 1.6117039999999999e+01 0.0000000000000000e+00 0 0 0
6084 444 4 -1.3889000000000001e-01 4.2285500000000003e+00 1.6117039999999999e+01 7.1781600000000001e+00 0 0 0
6085 444 4 0.0000000000000000e+00 2.5366499999999998e+00 1.6117039999999999e+01 2.3926400000000001e+00 0 0 0
6087 444 4 0.0000000000000000e+00 8.4509000000000001e-01 1.6117039999999999e+01 4.7824499999999999e+00 0 0 0
5712 444 1 4.1499999999999998e-01 4.5223062494779365e+00 1.5832749838859131e+01 1.5417002170088809e+01 0 1 0
1975 444 2 -8.2999999999999996e-01 2.7298370923230522e+00 1.5177155778904647e+01 1.0802149697378791e+01 0 0 0
5711 444 1 4.1499999999999998e-01 4.3710112410404953e+00 1.6478118445795420e+01 1.4055934551711459e+01 0 1 0
5710 444 2 -8.2999999999999996e-01 3.8669277665785478e+00 1.6186038640957605e+01 1.4815422276623258e+01 0 1 0
502 444 2 -8.2999999999999996e-01 2.5735055051675331e+00 1.2664056593154918e+01 1.0258989657214494e+01 1 0 0
1976 444 1 4.1499999999999998e-01 1.8696977046313499e+00 1.5411454037608049e+01 1.0453586339646762e+01 0 0 0
503 444 1 4.1499999999999998e-01 2.4661488015080346e+00 1.3009398845538493e+01 9.3727358055685883e+00 1 0 0
489 444 1 4.1499999999999998e-01 2.4329030864669385e-01 1.7336922720851085e+01 9.1790737616062330e+00 1 0 0
5679 444 1 4.1499999999999998e-01 2.3212473428809650e+00 1.6253976261621684e+01 1.3719380819174695e+01 -1 0 0
1977 444 1 4.1499999999999998e-01 2.7888558822440901e+00 1.4229781405818837e+01 1.0678737943276211e+01 0 0 0
602 444 1 4.1499999999999998e-01 4.1222981238671066e+00 1.4045413189525171e+01 1.2501725734244401e+01 0 0 0
5677 444 2 -8.2999999999999996e-01 1.5386508439494848e+00 1.5988741467720732e+01 1.3236239462477210e+01 -1 0 0
2585 444 1 4.1499999999999998e-01 5.3017157672740005e+00 1.1794742596374379e+01 9.4003653773914966e+00 1 -1 0
5291 444 1 4.1499999999999998e-01 4.4935362897558617e+00 1.5332176287386000e+01 1.0879722746257205e+01 -1 1 0
1341 444 1 4.1499999999999998e-01 4.1229790527195203e+00 1.2010557199390753e+01 1.2908096468953774e+01 1 0 0
2043 444 1 4.1499999999999998e-01 2.4328964218197831e+00 1.7099504379555164e+01 1.5818241774509604e+01 0 0 0
5471 444 1 4.1499999999999998e-01 2.0431000857959729e+00 1.2793612925874516e+01 1.2835023644581721e+01 2 1 0
5290 444 2 -8.2999999999999996e-01 5.2660483090848693e+00 1.4815486906690010e+01 1.1108828131783641e+01 -1 1 0
2142 444 1 4.1499999999999998e-01 5.1521614765244683e-01 1.4733275331344514e+01 1.4339969184012158e+01 1 0 0
5472 444 1 4.1499999999999998e-01 9.1166389234674849e-01 1.2973658600521263e+01 1.3824635221722728e+01 2 1 0
5678 444 1 4.1499999999999998e-01 1.8129017788047950e+00 1.5983936460543973e+01 1.2319181329476027e+01 -1 0 0
603 444 1 4.1499999999999998e-01 3.7720087199373169e+00 1.4383562480725145e+01 1.3935199808263759e+01 0 0 0
601 444 2 -8.2999999999999996e-01 3.6436930576545428e+00 1.3715220688796467e+01 1.3262082804330044e+01 0 0 0
3331 444 2 -8.2999999999999996e-01 4.2349130836952193e+00 1.7569979112797068e+01 9.7966196443464355e+00 1 -1 0
487 444 2 -8.2999999999999996e-01 3.5975276060977457e-01 1.7083275539735038e+01 1.0094678198105088e+01 1 0 0
4802 444 1 4.1499999999999998e-01 3.4478979346002420e-01 1.2367913868945715e+01 1.5780598417987852e+01 0 1 0
2584 444 2 -8.2999999999999996e-01 5.6359947979999045e+00 1.1942555782621474e+01 1.0285035475648323e+01 1 -1 0
5470 444 2 -8.2999999999999996e-01 1.1621625985212893e+00 1.2481958174875450e+01 1.3042514394913837e+01 2 1 0
2140 444 2 -8.2999999999999996e-01 1.6235505504365549e-01 1.4022243520354296e+01 1.4874904391424378e+01 1 0 0
504 444 1 4.1499999999999998e-01 3.0368234125428297e+00 1.1835091862168012e+01 1.0139044678893264e+01 1 0 0
5559 444 1 4.1499999999999998e-01 6.6983176931968882e-02 1.7143626149142023e+01 1.2957698804769819e+01 0 0 0
3333 444 1 4.1499999999999998e-01 3.7856925793321810e+00 1.6831432885000947e+01 9.3855442733473229e+00 1 -1 0
2799 444 1 4.1499999999999998e-01 4.5114568063144560e+00 1.7342183974139328e+01 1.1761284763928865e+01 1 0 0
2802 444 1 4.1499999999999998e-01 4.7316917217338830e+00 1.3864923767055439e+01 1.7317389042864328e+01 0 -1 0
2800 444 2 -8.2999999999999996e-01 4.3956514280186649e+00 1.3016468522326058e+01 1.7606235915092121e+01 0 -1 0
2801 444 1 4.1499999999999998e-01 3.4447843503252411e+00 1.3125893289152851e+01 1.7616719438756640e+01 0 -1 0
631 444 2 -8.2999999999999996e-01 2.0817893880329668e+00 1.6468207071590871e+01 1.8493328787285712e+01 1 1 0
633 444 1 4.1499999999999998e-01 1.7995398790808006e+00 1.6762476698019753e+01 1.7627318970173128e+01 1 1 0
782 444 1 4.1499999999999998e-01 1.8929450249028410e+00 1.3087503683651896e+01 2.1262646010562808e+01 1 1 0
632 444 1 4.1499999999999998e-01 2.9606342406155952e+00 1.6833283718208818e+01 1.8596205880589778e+01 1 1 0
2453 444 1 4.1499999999999998e-01 1.4099131571220234e+00 1.4440944697873777e+01 1.8321728533994950e+01 1 1 0
2452 444 2 -8.2999999999999996e-01 1.6004312042625990e+00 1.3528618587242429e+01 1.8103562701183769e+01 1 1 0
2454 444 1 4.1499999999999998e-01 1.6591194501290745e+00 1.3086546278117231e+01 1.8950534412028034e+01 1 1 0
783 444 1 4.1499999999999998e-01 3.2568253799519193e+00 1.2892003783682796e+01 2.0635345947708426e+01 1 1 0
4045 444 2 -8.2999999999999996e-01 3.7236840561252649e+00 1.6172252738794867e+01 2.0956020176930981e+01 -1 0 0
781 444 2 -8.2999999999999996e-01 2.3413159691564713e+00 1.2624374844747496e+01 2.0555039445581336e+01 1 1 0
4046 444 1 4.1499999999999998e-01 2.7669109503181835e+00 1.6189205576007495e+01 2.0979036380466297e+01 -1 0 0