LAMMPS data file via write_data, version 11 Aug 2017, timestep = 5000000

7166 atoms
4 atom types
4000 bonds
1 bond types
2000 angles
1 angle types

0.0000000000000000e+00 4.5679949999999998e+01 xlo xhi
0.0000000000000000e+00 4.6885919999999999e+01 ylo yhi
0.0000000000000000e+00 6.5000000000000000e+01 zlo zhi

Masses

1 1.0079
2 15.9994
3 22.9898
4 107.868

Bond Coeffs # harmonic

1 450 0.9572

Angle Coeffs # harmonic

1 55 104.52

Atoms # full

6015 444 4 0.0000000000000000e+00 1.6907200000000000e+00 0.0000000000000000e+00 0.0000000000000000e+00 0 0 0
6016 444 4 0.0000000000000000e+00 4.2285000000000004e+00 1.4651900000000000e+00 0.0000000000000000e+00 0 0 0
6017 444 4 -4.8610000000000000e-02 1.6907700000000001e+00 0.0000000000000000e+00 7.1781499999999996e+00 0 0 0
6018 444 4 -4.8610000000000000e-02 4.2285500000000003e+00 1.4651900000000000e+00 7.1781499999999996e+00 0 0 0
6019 444 4 0.0000000000000000e+00 2.5366499999999998e+00 1.4651900000000000e+00 2.3926400000000001e+00 0 0 0
6020 444 4 0.0000000000000000e+00 5.0744199999999999e+00 0.0000000000000000e+00 2.3926400000000001e+00 0 0 0
6021 444 4 0.0000000000000000e+00 8.4509000000000001e-01 1.4651900000000000e+00 4.7824200000000001e+00 0 0 0
6022 444 4 0.0000000000000000e+00 3.3828600000000000e+00 0.0000000000000000e+00 4.7824499999999999e+00 0 0 0
6023 444 4 0.0000000000000000e+00 1.6907200000000000e+00 2.9303699999999999e+00 0.0000000000000000e+00 0 0 0
6024 444 4 0.0000000000000000e+00 4.2285000000000004e+00 4.3955599999999997e+00 0.0000000000000000e+00 0 0 0
6025 444 4 -4.8610000000000000e-02 1.6907700000000001e+00 2.9303699999999999e+00 7.1781899999999998e+00 0 0 0
6026 444 4 -4.8610000000000000e-02 4.2285500000000003e+00 4.3955599999999997e+00 7.1781600000000001e+00 0 0 0
6027 444 4 0.0000000000000000e+00 2.5366499999999998e+00 4.3955599999999997e+00 2.3926400000000001e+00 0 0 0
6028 444 4 0.0000000000000000e+00 5.0744199999999999e+00 2.9303699999999999e+00 2.3926400000000001e+00 0 0 0
6029 444 4 0.0000000000000000e+00 8.4509000000000001e-01 4.3955599999999997e+00 4.7824499999999999e+00 0 0 0
6030 444 4 0.0000000000000000e+00 3.3828700000000000e+00 2.9303699999999999e+00 4.7824400000000002e+00 0 0 0
6031 444 4 0.0000000000000000e+00 1.6907200000000000e+00 5.8607399999999998e+00 0.0000000000000000e+00 0 0 0
6032 444 4 0.0000000000000000e+00 4.2285000000000004e+00 7.3259299999999996e+00 0.0000000000000000e+00 0 0 0
6033 444 4 -4.8610000000000000e-02 1.6907700000000001e+00 5.8607399999999998e+00 7.1781499999999996e+00 0 0 0
6034 444 4 -4.8610000000000000e-02 4.2285500000000003e+00 7.3259299999999996e+00 7.1781499999999996e+00 0 0 0
6035 444 4 0.0000000000000000e+00 2.5366499999999998e+00 7.3259299999999996e+00 2.3926400000000001e+00 0 0 0
6036 444 4 0.0000000000000000e+00 5.0744199999999999e+00 5.8607399999999998e+00 2.3926400000000001e+00 0 0 0
6037 444 4 0.0000000000000000e+00 8.4509000000000001e-01 7.3259299999999996e+00 4.7824200000000001e+00 0 0 0
6038 444 4 0.0000000000000000e+00 3.3828600000000000e+00 5.8607399999999998e+00 4.7824499999999999e+00 0 0 0
6143 444 4 0.0000000000000000e+00 6.7662699999999996e+00 0.0000000000000000e+00 0.0000000000000000e+00 0 0 0
6145 444 4 -4.8610000000000000e-02 6.7663200000000003e+00 0.0000000000000000e+00 7.1781499999999996e+00 0 0 0
6147 444 4 0.0000000000000000e+00 7.6121999999999996e+00 1.4651900000000000e+00 2.3926400000000001e+00 0 0 0
6149 444 4 0.0000000000000000e+00 5.9206399999999997e+00 1.4651900000000000e+00 4.7824200000000001e+00 0 0 0
6151 444 4 0.0000000000000000e+00 6.7662699999999996e+00 2.9303699999999999e+00 0.0000000000000000e+00 0 0 0
6153 444 4 -4.8610000000000000e-02 6.7663200000000003e+00 2.9303699999999999e+00 7.1781899999999998e+00 0 0 0
6155 444 4 0.0000000000000000e+00 7.6121999999999996e+00 4.3955599999999997e+00 2.3926400000000001e+00 0 0 0
6157 444 4 0.0000000000000000e+00 5.9206399999999997e+00 4.3955599999999997e+00 4.7824499999999999e+00 0 0 0
6159 444 4 0.0000000000000000e+00 6.7662699999999996e+00 5.8607399999999998e+00 0.0000000000000000e+00 0 0 0
6161 444 4 -4.8610000000000000e-02 6.7663200000000003e+00 5.8607399999999998e+00 7.1781499999999996e+00 0 0 0
6163 444 4 0.0000000000000000e+00 7.6121999999999996e+00 7.3259299999999996e+00 2.3926400000000001e+00 0 0 0
6165 444 4 0.0000000000000000e+00 5.9206399999999997e+00 7.3259299999999996e+00 4.7824200000000001e+00 0 0 0
6144 444 4 0.0000000000000000e+00 9.3040500000000002e+00 1.4651900000000000e+00 0.0000000000000000e+00 0 0 0
6146 444 4 -4.8610000000000000e-02 9.3041000000000000e+00 1.4651900000000000e+00 7.1781499999999996e+00 0 0 0
6148 444 4 0.0000000000000000e+00 1.0149970000000000e+01 0.0000000000000000e+00 2.3926400000000001e+00 0 0 0
6150 444 4 0.0000000000000000e+00 8.4584100000000007e+00 0.0000000000000000e+00 4.7824499999999999e+00 0 0 0
6152 444 4 0.0000000000000000e+00 9.3040500000000002e+00 4.3955599999999997e+00 0.0000000000000000e+00 0 0 0
6154 444 4 -4.8610000000000000e-02 9.3041000000000000e+00 4.3955599999999997e+00 7.1781600000000001e+00 0 0 0
6156 444 4 0.0000000000000000e+00 1.0149970000000000e+01 2.9303699999999999e+00 2.3926400000000001e+00 0 0 0
6158 444 4 0.0000000000000000e+00 8.4584200000000003e+00 2.9303699999999999e+00 4.7824400000000002e+00 0 0 0
6160 444 4 0.0000000000000000e+00 9.3040500000000002e+00 7.3259299999999996e+00 0.0000000000000000e+00 0 0 0
6162 444 4 -4.8610000000000000e-02 9.3041000000000000e+00 7.3259299999999996e+00 7.1781499999999996e+00 0 0 0
6164 444 4 0.0000000000000000e+00 1.0149970000000000e+01 5.8607399999999998e+00 2.3926400000000001e+00 0 0 0
6166 444 4 0.0000000000000000e+00 8.4584100000000007e+00 5.8607399999999998e+00 4.7824499999999999e+00 0 0 0
6277 444 4 0.0000000000000000e+00 1.0996190000000000e+01 1.4651900000000000e+00 4.7824200000000001e+00 0 0 0
6285 444 4 0.0000000000000000e+00 1.0996190000000000e+01 4.3955599999999997e+00 4.7824499999999999e+00 0 0 0
6293 444 4 0.0000000000000000e+00 1.0996190000000000e+01 7.3259299999999996e+00 4.7824200000000001e+00 0 0 0
637 444 2 -8.2999999999999996e-01 5.3900937121346111e+00 1.6994002211706767e+00 1.1690530834068211e+01 0 -3 0
638 444 1 4.1499999999999998e-01 4.9257201597706910e+00 9.2173081566556114e-01 1.1380983747740011e+01 0 -3 0
639 444 1 4.1499999999999998e-01 4.7300933423470379e+00 2.3926133505447180e+00 1.1681200547781035e+01 0 -3 0
1415 444 1 4.1499999999999998e-01 2.1404640343053907e+00 3.1748755662061643e+00 1.1988377264804866e+01 3 -2 0
2117 444 1 4.1499999999999998e-01 7.3680363933855215e+00 5.0966866247834233e+00 1.0424381424749328e+01 -1 -2 0
2116 444 2 -8.2999999999999996e-01 8.2840112443874965e+00 4.8593077304831436e+00 1.0568859587481015e+01 -1 -2 0
2118 444 1 4.1499999999999998e-01 8.3415626699886722e+00 3.9449395068581294e+00 1.0291638777406579e+01 -1 -2 0
1227 444 1 4.1499999999999998e-01 5.8819557025921902e+00 4.4364930409905448e+00 9.4714089599674729e+00 2 2 0
1416 444 1 4.1499999999999998e-01 3.3133222190293901e+00 4.1283311514723184e+00 1.2073357315481626e+01 3 -2 0
1595 444 1 4.1499999999999998e-01 3.3157445963886625e+00 1.0613462883186644e+00 1.4524152584377987e+01 -1 -2 0
1596 444 1 4.1499999999999998e-01 3.0917921765175111e+00 2.5428303211193835e+00 1.4307482611454112e+01 -1 -2 0
1594 444 2 -8.2999999999999996e-01 2.9702659916504932e+00 1.8451248131407463e+00 1.4951432491811373e+01 -1 -2 0
175 444 2 -8.2999999999999996e-01 9.4685351950586263e+00 6.8926837241439225e+00 1.2142600230559998e+01 -3 -3 0
3364 444 2 -8.2999999999999996e-01 4.6116202369842979e-01 3.7961332480237768e+00 1.1600597858019359e+01 -3 -2 0
3290 444 1 4.1499999999999998e-01 9.7831731859205409e+00 6.9714576101729904e+00 1.3888994791100798e+01 5 3 0
176 444 1 4.1499999999999998e-01 9.2333098236040954e+00 6.0685270005154353e+00 1.1716375402035712e+01 -3 -3 0
4003 444 2 -8.2999999999999996e-01 1.0349621360680251e+01 4.6167451048787894e-01 1.2473184330333339e+01 -1 5 0
177 444 1 4.1499999999999998e-01 1.0343444515704483e+01 7.0935506521371856e+00 1.1810307266454398e+01 -3 -3 0
1226 444 1 4.1499999999999998e-01 4.7309865821826538e+00 5.2002697083826366e+00 1.0090933553114255e+01 2 2 0
4166 444 1 4.1499999999999998e-01 5.6566687576742609e+00 2.0231617699332061e+00 1.3333447024911784e+01 -2 5 0
1225 444 2 -8.2999999999999996e-01 5.5233172421708989e+00 4.7121641747152223e+00 1.0314982396598928e+01 2 2 0
1414 444 2 -8.2999999999999996e-01 2.9800508048287062e+00 3.3046724877020246e+00 1.2429374862079960e+01 3 -2 0
1787 444 1 4.1499999999999998e-01 6.8131594502085635e+00 4.8662021084478724e+00 1.2759524602182793e+01 1 1 0
1788 444 1 4.1499999999999998e-01 5.7960284021409665e+00 5.6040441458675687e+00 1.1915173011178840e+01 1 1 0
4167 444 1 4.1499999999999998e-01 6.7096320944437888e+00 2.9339143954487299e+00 1.3928168447942941e+01 -2 5 0
4165 444 2 -8.2999999999999996e-01 5.9273038020092388e+00 2.4315304143252185e+00 1.4155775320017785e+01 -2 5 0
1786 444 2 -8.2999999999999996e-01 6.1561502353457227e+00 5.5610771053476213e+00 1.2801005153028887e+01 1 1 0
2405 444 1 4.1499999999999998e-01 1.0368492710603993e+01 4.3077637818405723e+00 1.0562689338847990e+01 1 1 0
4201 444 2 -8.2999999999999996e-01 4.3506442680647597e+00 4.6194176015124206e+00 1.4883003104778837e+01 4 2 0
4202 444 1 4.1499999999999998e-01 4.4061865427260027e+00 5.2790418201064311e+00 1.4191596405218952e+01 4 2 0
4635 444 1 4.1499999999999998e-01 7.1237368305105404e+00 2.3157639221374695e+00 1.0912200977713022e+01 -1 -4 0
1975 444 2 -8.2999999999999996e-01 7.8615894223567651e-01 7.1723358839551947e+00 1.4717111694260353e+01 2 4 0
4440 444 1 4.1499999999999998e-01 9.3695207998806573e+00 2.1997818689703670e+00 1.5767644814950653e+01 1 6 0
4438 444 2 -8.2999999999999996e-01 8.9253707412280487e+00 1.8082949805970003e+00 1.5015514062241294e+01 1 6 0
4203 444 1 4.1499999999999998e-01 4.8675347431159697e+00 3.8836494272447628e+00 1.4554823236377123e+01 4 2 0
4439 444 1 4.1499999999999998e-01 8.2339018931107830e+00 1.2689288552205249e+00 1.5399163879642247e+01 1 6 0
1977 444 1 4.1499999999999998e-01 6.6365437672129024e-01 7.4363666077086767e+00 1.5628984703053192e+01 2 4 0
1976 444 1 4.1499999999999998e-01 4.4616645739060751e-01 6.2783922547317061e+00 1.4678358745677190e+01 2 4 0
4633 444 2 -8.2999999999999996e-01 7.9433263858889687e+00 2.0476368827371232e+00 1.0496733088570872e+01 -1 -4 0
1438 444 2 -8.2999999999999996e-01 2.5425741484066631e+00 5.4712127470293801e+00 1.0324781707857218e+01 2 5 0
3227 444 1 4.1499999999999998e-01 8.4307922473733399e+00 3.3853431027023548e+00 1.4010234242994123e+01 0 -3 0
1439 444 1 4.1499999999999998e-01 2.1779104058853096e+00 6.2089451102568560e+00 9.8359017293573601e+00 2 5 0
4634 444 1 4.1499999999999998e-01 7.6731722272109009e+00 1.4652861835256989e+00 9.7867211027271335e+00 -1 -4 0
656 444 1 4.1499999999999998e-01 1.5495876858552786e+00 7.9990639007219844e-01 1.5574440748872725e+01 1 3 0
3226 444 2 -8.2999999999999996e-01 7.9488529950733149e+00 3.7412762533715385e+00 1.3263723018122453e+01 0 -3 0
3228 444 1 4.1499999999999998e-01 8.5790151584658769e+00 3.7289934241273328e+00 1.2543322358286407e+01 0 -3 0
3365 444 1 4.1499999999999998e-01 3.6396646770996471e-01 2.9059471955646110e+00 1.1262435596481021e+01 -3 -2 0
4005 444 1 4.1499999999999998e-01 9.6633894243553584e+00 8.9187931330800974e-01 1.2983323146769264e+01 -1 5 0
1440 444 1 4.1499999999999998e-01 2.0870528355377433e+00 4.7044039516909315e+00 9.9773094798636830e+00 2 5 0
1853 444 1 4.1499999999999998e-01 1.1416530257565888e+01 2.3871645065167644e+00 1.0269063873951549e+01 4 -1 0
2404 444 2 -8.2999999999999996e-01 1.1280735328183454e+01 4.0922678077978345e+00 1.0756614490658592e+01 1 1 0
1852 444 2 -8.2999999999999996e-01 1.1352027384044177e+01 1.4321577046079168e+00 1.0263220846390334e+01 4 -1 0
1854 444 1 4.1499999999999998e-01 1.0766559620442177e+01 1.2356377444320010e+00 9.5318935707804862e+00 4 -1 0
887 444 1 4.1499999999999998e-01 1.2398713994848218e+00 6.9202084292286203e-01 1.0971047328521399e+01 -2 1 0
3593 444 1 4.1499999999999998e-01 5.5816857612514950e+00 2.0656982256038341e+00 1.5718402111938373e+01 4 5 0
2031 444 1 4.1499999999999998e-01 6.9849156255517597e+00 7.6562632352296589e+00 1.4876114096987150e+01 1 1 0
387 444 1 4.1499999999999998e-01 2.0012463998764569e+00 3.2928278649605276e+00 1.5802714927492332e+01 3 -1 0
386 444 1 4.1499999999999998e-01 6.7812158895399510e-01 4.0138212134665769e+00 1.5656411365039766e+01 3 -1 0
888 444 1 4.1499999999999998e-01 4.7181077692802115e-01 1.2730074625024621e+00 9.8029578088699214e+00 -2 1 0
655 444 2 -8.2999999999999996e-01 7.8196527895100587e-01 2.2820341938526167e-01 1.5562436657314116e+01 1 3 0
3291 444 1 4.1499999999999998e-01 9.2741213855053601e+00 7.6649637363311109e+00 1.5134711979312714e+01 5 3 0
213 444 1 4.1499999999999998e-01 1.5109783767879028e+00 7.3132400487559108e+00 1.1126450761494583e+01 2 -4 0
2030 444 1 4.1499999999999998e-01 6.5624303713356573e+00 7.0765099346716269e+00 1.3542964074789655e+01 1 1 0
3289 444 2 -8.2999999999999996e-01 1.0044627097914223e+01 7.2264644362284258e+00 1.4773780257276877e+01 5 3 0
886 444 2 -8.2999999999999996e-01 7.1333660803027277e-01 1.4483997509524000e+00 1.0712427411092840e+01 -2 1 0
497 444 1 4.1499999999999998e-01 1.0682610724477135e+01 7.2851768293464749e+00 9.6454666237314832e+00 -1 2 0
4004 444 1 4.1499999999999998e-01 1.0308734056107216e+01 8.8142761655134239e-01 1.1613900980887108e+01 -1 5 0
414 444 1 4.1499999999999998e-01 1.2596171270712098e-01 4.5473151647561707e+00 1.3128240099151787e+01 -2 -4 0
2250 444 1 4.1499999999999998e-01 1.8594693408143506e+00 2.9556194887501031e-01 2.0144461725829824e+01 -3 -2 0
169 444 2 -8.2999999999999996e-01 3.6191170753794748e+00 7.4302287044368747e+00 2.0285438468580477e+01 2 5 0
1545 444 1 4.1499999999999998e-01 9.6493667640294767e-02 2.2148303045914077e+00 2.2469400116463412e+01 1 -1 0
1289 444 1 4.1499999999999998e-01 7.8522263446482832e-01 5.4581450857687122e+00 2.0176239514310794e+01 5 0 0
751 444 2 -8.2999999999999996e-01 1.8445068730810205e-01 7.4540357920019158e+00 1.7298594891360139e+01 1 -3 0
5959 444 2 -8.2999999999999996e-01 1.0516401499606548e+01 7.7522549412131507e+00 2.0128469189094968e+01 4 3 0
4425 444 1 4.1499999999999998e-01 7.5804002555329308e+00 1.6779091841424707e+00 1.7896419464483678e+01 0 3 0
3594 444 1 4.1499999999999998e-01 4.2090404039174771e+00 1.8495513362743268e+00 1.6319252553481526e+01 4 5 0
4424 444 1 4.1499999999999998e-01 6.6812124785662279e+00 6.9915483572514059e-01 1.7171577009545000e+01 0 3 0
2187 444 1 4.1499999999999998e-01 4.0076948552809712e+00 5.8145371998286395e+00 1.7755482642393833e+01 5 1 0
3592 444 2 -8.2999999999999996e-01 5.1391003671347892e+00 1.8711527023790258e+00 1.6544539195943617e+01 4 5 0
232 444 2 -8.2999999999999996e-01 1.0049695881876628e+01 5.2930529973190570e+00 1.7065356783498288e+01 -1 -1 0
385 444 2 -8.2999999999999996e-01 1.3286470551907503e+00 3.7502958450158661e+00 1.6307260072132429e+01 3 -1 0
4561 444 2 -8.2999999999999996e-01 1.0453795500230223e+01 2.5495095713955158e+00 1.7111388671938904e+01 6 -2 0
2454 444 1 4.1499999999999998e-01 7.2543957970437569e+00 6.1778211212194352e+00 1.8918665774539001e+01 -1 0 0
2069 444 1 4.1499999999999998e-01 4.8371589823370735e+00 5.8173440153806375e+00 2.2632219243904672e+01 3 -2 0
3635 444 1 4.1499999999999998e-01 1.1024383605656825e+01 9.0340499714299460e-01 2.3445355111389041e+01 -3 4 0
790 444 2 -8.2999999999999996e-01 1.8260500023296594e-01 9.8677734815944995e-01 2.0219509517565410e+01 -1 1 0
4423 444 2 -8.2999999999999996e-01 7.5884948345227849e+00 8.3366712431483514e-01 1.7445396459548903e+01 0 3 0
1262 444 1 4.1499999999999998e-01 1.5570703402116559e+00 4.6097984624103390e+00 1.7990887154382296e+01 0 4 0
4927 444 2 -8.2999999999999996e-01 7.7839070502294812e+00 3.2590557333807997e+00 1.8464439946225113e+01 3 2 0
1544 444 1 4.1499999999999998e-01 1.3385234657399696e+00 3.0138334658166710e+00 2.2136456799620024e+01 1 -1 0
2068 444 2 -8.2999999999999996e-01 5.4327125367990021e+00 6.4722530788491373e+00 2.2268018265989511e+01 3 -2 0
1461 444 1 4.1499999999999998e-01 8.9759893221794620e+00 4.8172822396394741e+00 2.1172491306471571e+01 1 1 0
4929 444 1 4.1499999999999998e-01 7.7614370199455625e+00 3.1147590568400512e+00 1.9410434879597393e+01 3 2 0
4928 444 1 4.1499999999999998e-01 6.9847020650651768e+00 3.7516571746717489e+00 1.8277765679635909e+01 3 2 0
5062 444 2 -8.2999999999999996e-01 1.0906776815435112e+01 2.0573437229650993e-01 2.1879364324115365e+01 0 4 0
3891 444 1 4.1499999999999998e-01 4.6516652747891729e-01 6.2234483008252655e+00 2.4077790030603797e+01 3 5 0
2186 444 1 4.1499999999999998e-01 4.3768892820374043e+00 4.9143354969050632e+00 1.6595643092613244e+01 5 1 0
5878 444 2 -8.2999999999999996e-01 2.6354356562449524e+00 5.1289659315873122e+00 2.2441997511282764e+01 -1 0 0
3634 444 2 -8.2999999999999996e-01 1.0871475960067286e+01 1.6403683709962522e+00 2.4036740226573635e+01 -3 4 0
2947 444 2 -8.2999999999999996e-01 8.3435795587549801e+00 4.3083213512930341e-01 2.0379569299863356e+01 -4 -1 0
1113 444 1 4.1499999999999998e-01 4.5686872484233652e+00 3.9494107268273031e+00 1.8629866983082259e+01 -2 2 0
771 444 1 4.1499999999999998e-01 6.6869981033272703e+00 3.9437984104379735e+00 2.1102350818023861e+01 1 0 0
769 444 2 -8.2999999999999996e-01 7.6431259386077919e+00 3.9332291989530259e+00 2.1058308177317532e+01 1 0 0
1111 444 2 -8.2999999999999996e-01 4.5581554952115733e+00 3.0699702989188609e+00 1.9007631042487017e+01 -2 2 0
770 444 1 4.1499999999999998e-01 7.9185546728868204e+00 3.5836644541481393e+00 2.1905760532369847e+01 1 0 0
1543 444 2 -8.2999999999999996e-01 9.2850164125971291e-01 2.5099086246232072e+00 2.2839431737643928e+01 1 -1 0
1112 444 1 4.1499999999999998e-01 4.7288172429304742e+00 2.4884602238177655e+00 1.8266717679065145e+01 -2 2 0
2185 444 2 -8.2999999999999996e-01 4.5926229988343508e+00 5.0977157531209381e+00 1.7510007689337652e+01 5 1 0
5879 444 1 4.1499999999999998e-01 2.1394166009370688e+00 5.2877658487310857e+00 2.3245103712039928e+01 -1 0 0
5880 444 1 4.1499999999999998e-01 1.9867944320526096e+00 5.1987409549349302e+00 2.1741549164324862e+01 -1 0 0
3860 444 1 4.1499999999999998e-01 4.6657283147940216e+00 3.5192437407219574e+00 2.0561757472898140e+01 -1 1 0
4891 444 2 -8.2999999999999996e-01 8.4814624900676261e+00 2.2183971887912164e+00 2.2773129688222376e+01 8 6 0
3859 444 2 -8.2999999999999996e-01 4.8285101412581257e+00 3.6373713471744225e+00 2.1497588616301300e+01 -1 1 0
3861 444 1 4.1499999999999998e-01 4.0201219516626905e+00 4.0232762992596749e+00 2.1834958052366726e+01 -1 1 0
4893 444 1 4.1499999999999998e-01 8.6796480994132690e+00 1.6374569136730772e+00 2.2038648306701649e+01 8 6 0
2446 444 2 -8.2999999999999996e-01 7.3149147789189426e+00 6.9359214146401413e+00 2.0543093617719986e+01 1 1 0
4892 444 1 4.1499999999999998e-01 9.0404373830416027e+00 1.9053586918805037e+00 2.3484316000424581e+01 8 6 0
5953 444 2 -8.2999999999999996e-01 1.9537471345827504e+00 3.2259181831297634e+00 2.0479283334976309e+01 1 4 0
1261 444 2 -8.2999999999999996e-01 1.3941670611783652e+00 5.2917121824122262e+00 1.8642568925451183e+01 0 4 0
5954 444 1 4.1499999999999998e-01 1.4795439816586551e+00 2.4534078190067850e+00 2.0171726102194576e+01 1 4 0
2452 444 2 -8.2999999999999996e-01 7.3127342165226015e+00 6.2063467128430876e+00 1.7963670583159288e+01 -1 0 0
4562 444 1 4.1499999999999998e-01 9.8290564049158640e+00 2.5175362439550053e+00 1.7835895843745824e+01 6 -2 0
1460 444 1 4.1499999999999998e-01 1.0487741445346417e+01 4.7373097727124147e+00 2.1162219018886951e+01 1 1 0
5955 444 1 4.1499999999999998e-01 2.6466253091370864e+00 3.3557581219725470e+00 1.9831754531484059e+01 1 4 0
1263 444 1 4.1499999999999998e-01 1.3105089475900293e+00 6.0968360588114781e+00 1.8131678001933913e+01 0 4 0
1288 444 2 -8.2999999999999996e-01 3.7393003974964700e-01 5.7176545017289238e+00 2.1000694114848091e+01 5 0 0
4361 444 1 4.1499999999999998e-01 1.0061054469546026e+01 5.5839223578860784e+00 2.3473493013063550e+01 -3 0 0
4362 444 1 4.1499999999999998e-01 1.0850080866715620e+01 4.3483785653144045e+00 2.3851334659144474e+01 -3 0 0
2448 444 1 4.1499999999999998e-01 6.7740765366947580e+00 6.8787576205085834e+00 2.1330785342946086e+01 1 1 0
1459 444 2 -8.2999999999999996e-01 9.7629383889714632e+00 5.3483154309619421e+00 2.1294750194867341e+01 1 1 0
2453 444 1 4.1499999999999998e-01 6.4282406916336399e+00 5.9979607830287467e+00 1.7662873544810495e+01 -1 0 0
2070 444 1 4.1499999999999998e-01 4.9428586921137683e+00 6.8674013337502489e+00 2.1546814530791625e+01 3 -2 0
1931 444 1 4.1499999999999998e-01 6.9770582485123152e+00 2.8009795448288752e+00 2.3544537868024058e+01 -4 -1 0
5960 444 1 4.1499999999999998e-01 1.0269835096771207e+01 6.8898050855524451e+00 2.0462562010793228e+01 4 3 0
951 444 1 4.1499999999999998e-01 1.8423663705520583e+00 1.1486256390874210e+00 2.4121370862270251e+01 0 -4 0
3552 444 1 4.1499999999999998e-01 7.8279020712221241e+00 7.3407177021963443e+00 1.6839273833294865e+01 -2 -1 0
4360 444 2 -8.2999999999999996e-01 1.0607205690551245e+01 5.2179731475681184e+00 2.4169217203544967e+01 -3 0 0
1930 444 2 -8.2999999999999996e-01 6.2624363079259870e+00 3.3478999434465693e+00 2.3870769822314070e+01 -4 -1 0
233 444 1 4.1499999999999998e-01 9.5588224269153379e+00 5.7150192342820914e+00 1.7770495117338285e+01 -1 -1 0
2447 444 1 4.1499999999999998e-01 7.9919739111204304e+00 6.2709392825407946e+00 2.0668080016436001e+01 1 1 0
1932 444 1 4.1499999999999998e-01 5.6578415808776539e+00 3.4185718288321842e+00 2.3132052104902300e+01 -4 -1 0
234 444 1 4.1499999999999998e-01 9.8991565885083830e+00 5.8499529343385204e+00 1.6301529218173290e+01 -1 -1 0
4563 444 1 4.1499999999999998e-01 1.0585640999513235e+01 3.4836163892942369e+00 1.6949236860661060e+01 6 -2 0
170 444 1 4.1499999999999998e-01 2.9518046568358742e+00 6.8639765058569235e+00 2.0673104250960545e+01 2 5 0
5447 444 1 4.1499999999999998e-01 2.3141787469581929e-01 2.6302895319916497e+00 1.7498660901642261e+01 0 0 0
2948 444 1 4.1499999999999998e-01 8.7644083624032074e+00 2.1002386969911924e-01 1.9548678803771999e+01 -4 -1 0
171 444 1 4.1499999999999998e-01 3.3374620294425590e+00 7.5466137330832330e+00 1.9378047960527894e+01 2 5 0
2949 444 1 4.1499999999999998e-01 7.4586267089521074e+00 7.4228315261827049e-02 2.0302595005128033e+01 -4 -1 0
1448 444 1 4.1499999999999998e-01 4.8236718492094356e-02 7.6427387867348298e+00 2.7407856021571650e+01 4 -7 0
5242 444 2 -8.2999999999999996e-01 2.6970618017361243e+00 6.9826289332573559e+00 2.5980188130567420e+01 5 1 0
3042 444 1 4.1499999999999998e-01 9.9739798413727456e+00 1.8383714685554084e-01 2.4950467841494401e+01 -4 2 0
5041 444 2 -8.2999999999999996e-01 5.5176437058599177e+00 1.4298354761559770e-01 2.7781789223606193e+01 -1 -1 0
2223 444 1 4.1499999999999998e-01 8.9134150848465197e+00 1.3527051867839932e-01 2.9292960533959491e+01 1 2 0
4617 444 1 4.1499999999999998e-01 1.1009252737987810e+01 6.3401759963541897e+00 3.1687505756934748e+01 -3 -2 0
4493 444 1 4.1499999999999998e-01 4.5620830410882611e+00 7.0774302912083735e+00 2.9432855194692884e+01 -1 -1 0
2841 444 1 4.1499999999999998e-01 5.4910342670959542e+00 7.4198184003397616e+00 2.5186333132627766e+01 -3 0 0
3889 444 2 -8.2999999999999996e-01 9.5114323074522311e-01 5.5487247090182752e+00 2.4551928650254251e+01 3 5 0
5201 444 1 4.1499999999999998e-01 8.3073520428056185e+00 6.0590740698583980e+00 2.6774179854642618e+01 0 -2 0
4855 444 2 -8.2999999999999996e-01 1.0087605309902512e+01 1.9321663968174350e+00 3.1758102565238872e+01 -4 -5 0
2417 444 1 4.1499999999999998e-01 9.3138344743981243e+00 7.5812384151652479e+00 3.1133390323058016e+01 -1 0 0
3336 444 1 4.1499999999999998e-01 4.3677141981855918e+00 2.6712462785719859e+00 2.6192698444139548e+01 1 -4 0
5927 444 1 4.1499999999999998e-01 8.0305958758894338e+00 5.9194619600415654e+00 3.2228084129819571e+01 3 5 0
973 444 2 -8.2999999999999996e-01 7.0328174819886446e-01 7.6337426506007668e+00 2.9227515040270188e+01 5 -1 0
2839 444 2 -8.2999999999999996e-01 5.5563575485166155e+00 6.9525172900136711e+00 2.6019156355699760e+01 -3 0 0
2840 444 1 4.1499999999999998e-01 6.3729650920638585e+00 6.4575103628298827e+00 2.5953181873355227e+01 -3 0 0
987 444 1 4.1499999999999998e-01 1.4397334938840634e+00 9.9326912976945758e-01 2.8309932057028202e+01 1 7 0
1506 444 1 4.1499999999999998e-01 4.2597697158488952e+00 2.1833176990024965e+00 3.0169161431495677e+01 -2 1 0
5202 444 1 4.1499999999999998e-01 8.8279272109442708e+00 5.5203308586533373e+00 2.5458637130778708e+01 0 -2 0
3890 444 1 4.1499999999999998e-01 1.5549683960526957e+00 6.0366633062983661e+00 2.5111878821343574e+01 3 5 0
2416 444 2 -8.2999999999999996e-01 1.0165475790878379e+01 7.7659511633341234e+00 3.0737384761107670e+01 -1 0 0
986 444 1 4.1499999999999998e-01 8.1924157932877872e-01 1.6820845750634161e+00 2.9506769103718568e+01 1 7 0
950 444 1 4.1499999999999998e-01 2.7253264402821142e+00 1.0256241059250097e+00 2.5344950596894272e+01 0 -4 0
1504 444 2 -8.2999999999999996e-01 4.1411722435460616e+00 1.3204774464279645e+00 3.0566243101302497e+01 -2 1 0
2222 444 1 4.1499999999999998e-01 8.6735586909924027e+00 1.3251269974944773e+00 2.8388191951869562e+01 1 2 0
4857 444 1 4.1499999999999998e-01 9.8712895070196893e+00 1.5207145014892318e+00 3.0921354760026279e+01 -4 -5 0
892 444 2 -8.2999999999999996e-01 3.4470248531075858e+00 4.1277949611984841e+00 3.1703059149225549e+01 0 4 0
3761 444 1 4.1499999999999998e-01 6.8284080925714017e+00 3.7039013175243705e+00 2.9493105951198000e+01 -3 -4 0
949 444 2 -8.2999999999999996e-01 2.0838235411366020e+00 5.4380288742254002e-01 2.4822883331823196e+01 0 -4 0
4607 444 1 4.1499999999999998e-01 4.5436637768697699e+00 3.6971470602263103e+00 2.8088609051393643e+01 -2 4 0
4608 444 1 4.1499999999999998e-01 3.3797424765110056e+00 4.4516084142374748e+00 2.8695215156714585e+01 -2 4 0
4606 444 2 -8.2999999999999996e-01 4.0808525423233331e+00 3.8379628693593326e+00 2.8914568287986608e+01 -2 4 0
4787 444 1 4.1499999999999998e-01 2.5100218653411912e+00 6.2576346180138991e+00 2.7593932629216404e+01 -1 -1 0
1684 444 2 -8.2999999999999996e-01 4.8923392834400472e+00 6.6762862440242410e+00 3.1753350008535818e+01 4 2 0
3335 444 1 4.1499999999999998e-01 4.6082895144302016e+00 1.2639819024654115e+00 2.6696312278952870e+01 1 -4 0
1686 444 1 4.1499999999999998e-01 5.7126033677315284e+00 6.8391967326171343e+00 3.2219031677152785e+01 4 2 0
138 444 1 4.1499999999999998e-01 5.4739373597080370e+00 3.8826698265636232e+00 2.5296144926245223e+01 -1 1 0
1455 444 1 4.1499999999999998e-01 1.1373197007437337e+01 5.6464784672163244e+00 2.5559723725164108e+01 1 1 0
1689 444 1 4.1499999999999998e-01 7.0457457919194901e+00 2.6952031781087422e+00 2.7126252670034564e+01 -1 0 0
1685 444 1 4.1499999999999998e-01 4.5018361506064792e+00 7.5434103149621494e+00 3.1644556192965922e+01 4 2 0
1687 444 2 -8.2999999999999996e-01 7.0759061962845538e+00 2.4174747632876472e+00 2.8041779833635776e+01 -1 0 0
136 444 2 -8.2999999999999996e-01 5.0044094625070832e+00 4.2244120662421185e+00 2.6057057697594619e+01 -1 1 0
597 444 1 4.1499999999999998e-01 1.1561263458475950e+00 4.6568754415047406e+00 2.7512589304243107e+01 -2 0 0
595 444 2 -8.2999999999999996e-01 8.2190890848082854e-01 3.7826729729194835e+00 2.7311838220820622e+01 -2 0 0
894 444 1 4.1499999999999998e-01 3.8952995222191462e+00 4.8944318354869347e+00 3.2060200647189966e+01 0 4 0
582 444 1 4.1499999999999998e-01 1.0307033328172544e+01 6.3039379483448954e+00 2.7369202886678131e+01 8 0 0
581 444 1 4.1499999999999998e-01 9.5543632904137556e+00 5.3395408808647984e+00 2.8261010789400434e+01 8 0 0
580 444 2 -8.2999999999999996e-01 9.5857300872431974e+00 6.2590328934487323e+00 2.7996846996688951e+01 8 0 0
137 444 1 4.1499999999999998e-01 5.0179452189575375e+00 5.1744098814832240e+00 2.5940640205643451e+01 -1 1 0
1688 444 1 4.1499999999999998e-01 6.4490258200819817e+00 1.6960345381057906e+00 2.8094489908151282e+01 -1 0 0
4788 444 1 4.1499999999999998e-01 1.6900591005524481e+00 6.4074209782986751e+00 2.8857705128225600e+01 -1 -1 0
4786 444 2 -8.2999999999999996e-01 2.3009802647077722e+00 5.8165827251003499e+00 2.8417344346077204e+01 -1 -1 0
3334 444 2 -8.2999999999999996e-01 4.1454498561049888e+00 1.7566329291547096e+00 2.6018590529677809e+01 1 -4 0
3762 444 1 4.1499999999999998e-01 6.0144579375564620e+00 4.9478069238845270e+00 2.9779600911249403e+01 -3 -4 0
3760 444 2 -8.2999999999999996e-01 6.7161429334075597e+00 4.4034500739080880e+00 3.0136736958207134e+01 -3 -4 0
5928 444 1 4.1499999999999998e-01 7.4542626043598359e+00 5.9813911047608697e+00 3.0829549166646569e+01 3 5 0
4615 444 2 -8.2999999999999996e-01 1.0993682052441935e+01 5.5536320007277142e+00 3.2232793516349936e+01 -3 -2 0
893 444 1 4.1499999999999998e-01 3.6823478325168035e+00 4.1227790551756600e+00 3.0775249740322483e+01 0 4 0
2418 444 1 4.1499999999999998e-01 1.0071284151008213e+01 7.4895526467359579e+00 2.9825812630405238e+01 -1 0 0
2221 444 2 -8.2999999999999996e-01 9.2822187528379416e+00 9.8235030026326742e-01 2.9042615278874653e+01 1 2 0
1505 444 1 4.1499999999999998e-01 3.2225771452670835e+00 1.1058204703170504e+00 3.0403952420543558e+01 -2 1 0
985 444 2 -8.2999999999999996e-01 1.4653490080029905e+00 1.0179807154017668e+00 2.9266470262195369e+01 1 7 0
5912 444 1 4.1499999999999998e-01 4.2541102805760742e+00 9.9340218967581073e-01 3.2401202805884722e+01 -5 1 0
5200 444 2 -8.2999999999999996e-01 8.0735653121327378e+00 5.9596223677216491e+00 2.5851311625492684e+01 0 -2 0
6005 444 3 1.0000000000000000e+00 2.5282309378720946e-01 3.3091793396662745e+00 2.5062569654064074e+01 1 1 0
4492 444 2 -8.2999999999999996e-01 5.2801378667495182e+00 7.3325052057355204e+00 2.8853574595312789e+01 -1 -1 0
5244 444 1 4.1499999999999998e-01 3.6312262408797231e+00 7.0243159544104268e+00 2.6184715934902627e+01 5 1 0
3782 444 1 4.1499999999999998e-01 6.8841600212808132e+00 3.0739028879293802e+00 3.1820382741259671e+01 -3 3 0
5926 444 2 -8.2999999999999996e-01 7.9596132856209412e+00 6.4906014878151073e+00 3.1463235298515873e+01 3 5 0