LAMMPS data file via write_data, version 11 Aug 2017, timestep = 500000

7166 atoms
4 atom types
4000 bonds
1 bond types
2000 angles
1 angle types

0.0000000000000000e+00 4.5679949999999998e+01 xlo xhi
0.0000000000000000e+00 4.6885919999999999e+01 ylo yhi
0.0000000000000000e+00 6.5000000000000000e+01 zlo zhi

Masses

1 1.0079
2 15.9994
3 22.9898
4 107.868

Bond Coeffs # harmonic

1 450 0.9572

Angle Coeffs # harmonic

1 55 104.52

Atoms # full

6015 444 4 0.0000000000000000e+00 1.6907200000000000e+00 0.0000000000000000e+00 0.0000000000000000e+00 0 0 0
6016 444 4 0.0000000000000000e+00 4.2285000000000004e+00 1.4651900000000000e+00 0.0000000000000000e+00 0 0 0
6017 444 4 -4.8610000000000000e-02 1.6907700000000001e+00 0.0000000000000000e+00 7.1781499999999996e+00 0 0 0
6018 444 4 -4.8610000000000000e-02 4.2285500000000003e+00 1.4651900000000000e+00 7.1781499999999996e+00 0 0 0
6019 444 4 0.0000000000000000e+00 2.5366499999999998e+00 1.4651900000000000e+00 2.3926400000000001e+00 0 0 0
6020 444 4 0.0000000000000000e+00 5.0744199999999999e+00 0.0000000000000000e+00 2.3926400000000001e+00 0 0 0
6021 444 4 0.0000000000000000e+00 8.4509000000000001e-01 1.4651900000000000e+00 4.7824200000000001e+00 0 0 0
6022 444 4 0.0000000000000000e+00 3.3828600000000000e+00 0.0000000000000000e+00 4.7824499999999999e+00 0 0 0
6023 444 4 0.0000000000000000e+00 1.6907200000000000e+00 2.9303699999999999e+00 0.0000000000000000e+00 0 0 0
6024 444 4 0.0000000000000000e+00 4.2285000000000004e+00 4.3955599999999997e+00 0.0000000000000000e+00 0 0 0
6025 444 4 -4.8610000000000000e-02 1.6907700000000001e+00 2.9303699999999999e+00 7.1781899999999998e+00 0 0 0
6026 444 4 -4.8610000000000000e-02 4.2285500000000003e+00 4.3955599999999997e+00 7.1781600000000001e+00 0 0 0
6027 444 4 0.0000000000000000e+00 2.5366499999999998e+00 4.3955599999999997e+00 2.3926400000000001e+00 0 0 0
6028 444 4 0.0000000000000000e+00 5.0744199999999999e+00 2.9303699999999999e+00 2.3926400000000001e+00 0 0 0
6029 444 4 0.0000000000000000e+00 8.4509000000000001e-01 4.3955599999999997e+00 4.7824499999999999e+00 0 0 0
6030 444 4 0.0000000000000000e+00 3.3828700000000000e+00 2.9303699999999999e+00 4.7824400000000002e+00 0 0 0
6031 444 4 0.0000000000000000e+00 1.6907200000000000e+00 5.8607399999999998e+00 0.0000000000000000e+00 0 0 0
6032 444 4 0.0000000000000000e+00 4.2285000000000004e+00 7.3259299999999996e+00 0.0000000000000000e+00 0 0 0
6033 444 4 -4.8610000000000000e-02 1.6907700000000001e+00 5.8607399999999998e+00 7.1781499999999996e+00 0 0 0
6034 444 4 -4.8610000000000000e-02 4.2285500000000003e+00 7.3259299999999996e+00 7.1781499999999996e+00 0 0 0
6035 444 4 0.0000000000000000e+00 2.5366499999999998e+00 7.3259299999999996e+00 2.3926400000000001e+00 0 0 0
6036 444 4 0.0000000000000000e+00 5.0744199999999999e+00 5.8607399999999998e+00 2.3926400000000001e+00 0 0 0
6037 444 4 0.0000000000000000e+00 8.4509000000000001e-01 7.3259299999999996e+00 4.7824200000000001e+00 0 0 0
6038 444 4 0.0000000000000000e+00 3.3828600000000000e+00 5.8607399999999998e+00 4.7824499999999999e+00 0 0 0
6143 444 4 0.0000000000000000e+00 6.7662699999999996e+00 0.0000000000000000e+00 0.0000000000000000e+00 0 0 0
6145 444 4 -4.8610000000000000e-02 6.7663200000000003e+00 0.0000000000000000e+00 7.1781499999999996e+00 0 0 0
6147 444 4 0.0000000000000000e+00 7.6121999999999996e+00 1.4651900000000000e+00 2.3926400000000001e+00 0 0 0
6149 444 4 0.0000000000000000e+00 5.9206399999999997e+00 1.4651900000000000e+00 4.7824200000000001e+00 0 0 0
6151 444 4 0.0000000000000000e+00 6.7662699999999996e+00 2.9303699999999999e+00 0.0000000000000000e+00 0 0 0
6153 444 4 -4.8610000000000000e-02 6.7663200000000003e+00 2.9303699999999999e+00 7.1781899999999998e+00 0 0 0
6155 444 4 0.0000000000000000e+00 7.6121999999999996e+00 4.3955599999999997e+00 2.3926400000000001e+00 0 0 0
6157 444 4 0.0000000000000000e+00 5.9206399999999997e+00 4.3955599999999997e+00 4.7824499999999999e+00 0 0 0
6159 444 4 0.0000000000000000e+00 6.7662699999999996e+00 5.8607399999999998e+00 0.0000000000000000e+00 0 0 0
6161 444 4 -4.8610000000000000e-02 6.7663200000000003e+00 5.8607399999999998e+00 7.1781499999999996e+00 0 0 0
6163 444 4 0.0000000000000000e+00 7.6121999999999996e+00 7.3259299999999996e+00 2.3926400000000001e+00 0 0 0
6165 444 4 0.0000000000000000e+00 5.9206399999999997e+00 7.3259299999999996e+00 4.7824200000000001e+00 0 0 0
6039 444 4 0.0000000000000000e+00 1.6907200000000000e+00 8.7911099999999998e+00 0.0000000000000000e+00 0 0 0
6041 444 4 -4.8610000000000000e-02 1.6907700000000001e+00 8.7911099999999998e+00 7.1781899999999998e+00 0 0 0
6044 444 4 0.0000000000000000e+00 5.0744199999999999e+00 8.7911099999999998e+00 2.3926400000000001e+00 0 0 0
6046 444 4 0.0000000000000000e+00 3.3828700000000000e+00 8.7911099999999998e+00 4.7824400000000002e+00 0 0 0
6167 444 4 0.0000000000000000e+00 6.7662699999999996e+00 8.7911099999999998e+00 0.0000000000000000e+00 0 0 0
6169 444 4 -4.8610000000000000e-02 6.7663200000000003e+00 8.7911099999999998e+00 7.1781899999999998e+00 0 0 0
6040 444 4 0.0000000000000000e+00 4.2285000000000004e+00 1.0256300000000000e+01 0.0000000000000000e+00 0 0 0
6042 444 4 -4.8610000000000000e-02 4.2285500000000003e+00 1.0256300000000000e+01 7.1781600000000001e+00 0 0 0
6043 444 4 0.0000000000000000e+00 2.5366499999999998e+00 1.0256300000000000e+01 2.3926400000000001e+00 0 0 0
6045 444 4 0.0000000000000000e+00 8.4509000000000001e-01 1.0256300000000000e+01 4.7824499999999999e+00 0 0 0
6171 444 4 0.0000000000000000e+00 7.6121999999999996e+00 1.0256300000000000e+01 2.3926400000000001e+00 0 0 0
6173 444 4 0.0000000000000000e+00 5.9206399999999997e+00 1.0256300000000000e+01 4.7824499999999999e+00 0 0 0
6144 444 4 0.0000000000000000e+00 9.3040500000000002e+00 1.4651900000000000e+00 0.0000000000000000e+00 0 0 0
6146 444 4 -4.8610000000000000e-02 9.3041000000000000e+00 1.4651900000000000e+00 7.1781499999999996e+00 0 0 0
6148 444 4 0.0000000000000000e+00 1.0149970000000000e+01 0.0000000000000000e+00 2.3926400000000001e+00 0 0 0
6150 444 4 0.0000000000000000e+00 8.4584100000000007e+00 0.0000000000000000e+00 4.7824499999999999e+00 0 0 0
6152 444 4 0.0000000000000000e+00 9.3040500000000002e+00 4.3955599999999997e+00 0.0000000000000000e+00 0 0 0
6154 444 4 -4.8610000000000000e-02 9.3041000000000000e+00 4.3955599999999997e+00 7.1781600000000001e+00 0 0 0
6156 444 4 0.0000000000000000e+00 1.0149970000000000e+01 2.9303699999999999e+00 2.3926400000000001e+00 0 0 0
6158 444 4 0.0000000000000000e+00 8.4584200000000003e+00 2.9303699999999999e+00 4.7824400000000002e+00 0 0 0
6160 444 4 0.0000000000000000e+00 9.3040500000000002e+00 7.3259299999999996e+00 0.0000000000000000e+00 0 0 0
6162 444 4 -4.8610000000000000e-02 9.3041000000000000e+00 7.3259299999999996e+00 7.1781499999999996e+00 0 0 0
6164 444 4 0.0000000000000000e+00 1.0149970000000000e+01 5.8607399999999998e+00 2.3926400000000001e+00 0 0 0
6166 444 4 0.0000000000000000e+00 8.4584100000000007e+00 5.8607399999999998e+00 4.7824499999999999e+00 0 0 0
6277 444 4 0.0000000000000000e+00 1.0996190000000000e+01 1.4651900000000000e+00 4.7824200000000001e+00 0 0 0
6285 444 4 0.0000000000000000e+00 1.0996190000000000e+01 4.3955599999999997e+00 4.7824499999999999e+00 0 0 0
6293 444 4 0.0000000000000000e+00 1.0996190000000000e+01 7.3259299999999996e+00 4.7824200000000001e+00 0 0 0
6271 444 4 0.0000000000000000e+00 1.1841820000000000e+01 0.0000000000000000e+00 0.0000000000000000e+00 0 0 0
6272 444 4 0.0000000000000000e+00 1.4379600000000000e+01 1.4651900000000000e+00 0.0000000000000000e+00 0 0 0
6273 444 4 -4.8610000000000000e-02 1.1841870000000000e+01 0.0000000000000000e+00 7.1781499999999996e+00 0 0 0
6274 444 4 -4.8610000000000000e-02 1.4379650000000000e+01 1.4651900000000000e+00 7.1781499999999996e+00 0 0 0
6275 444 4 0.0000000000000000e+00 1.2687749999999999e+01 1.4651900000000000e+00 2.3926400000000001e+00 0 0 0
6276 444 4 0.0000000000000000e+00 1.5225519999999999e+01 0.0000000000000000e+00 2.3926400000000001e+00 0 0 0
6278 444 4 0.0000000000000000e+00 1.3533960000000000e+01 0.0000000000000000e+00 4.7824499999999999e+00 0 0 0
6279 444 4 0.0000000000000000e+00 1.1841820000000000e+01 2.9303699999999999e+00 0.0000000000000000e+00 0 0 0
6280 444 4 0.0000000000000000e+00 1.4379600000000000e+01 4.3955599999999997e+00 0.0000000000000000e+00 0 0 0
6281 444 4 -4.8610000000000000e-02 1.1841870000000000e+01 2.9303699999999999e+00 7.1781899999999998e+00 0 0 0
6282 444 4 -4.8610000000000000e-02 1.4379650000000000e+01 4.3955599999999997e+00 7.1781600000000001e+00 0 0 0
6283 444 4 0.0000000000000000e+00 1.2687749999999999e+01 4.3955599999999997e+00 2.3926400000000001e+00 0 0 0
6284 444 4 0.0000000000000000e+00 1.5225519999999999e+01 2.9303699999999999e+00 2.3926400000000001e+00 0 0 0
6286 444 4 0.0000000000000000e+00 1.3533970000000000e+01 2.9303699999999999e+00 4.7824400000000002e+00 0 0 0
6287 444 4 0.0000000000000000e+00 1.1841820000000000e+01 5.8607399999999998e+00 0.0000000000000000e+00 0 0 0
6288 444 4 0.0000000000000000e+00 1.4379600000000000e+01 7.3259299999999996e+00 0.0000000000000000e+00 0 0 0
6289 444 4 -4.8610000000000000e-02 1.1841870000000000e+01 5.8607399999999998e+00 7.1781499999999996e+00 0 0 0
6290 444 4 -4.8610000000000000e-02 1.4379650000000000e+01 7.3259299999999996e+00 7.1781499999999996e+00 0 0 0
6291 444 4 0.0000000000000000e+00 1.2687749999999999e+01 7.3259299999999996e+00 2.3926400000000001e+00 0 0 0
6292 444 4 0.0000000000000000e+00 1.5225519999999999e+01 5.8607399999999998e+00 2.3926400000000001e+00 0 0 0
6294 444 4 0.0000000000000000e+00 1.3533960000000000e+01 5.8607399999999998e+00 4.7824499999999999e+00 0 0 0
6172 444 4 0.0000000000000000e+00 1.0149970000000000e+01 8.7911099999999998e+00 2.3926400000000001e+00 0 0 0
6174 444 4 0.0000000000000000e+00 8.4584200000000003e+00 8.7911099999999998e+00 4.7824400000000002e+00 0 0 0
6168 444 4 0.0000000000000000e+00 9.3040500000000002e+00 1.0256300000000000e+01 0.0000000000000000e+00 0 0 0
6170 444 4 -4.8610000000000000e-02 9.3041000000000000e+00 1.0256300000000000e+01 7.1781600000000001e+00 0 0 0
6301 444 4 0.0000000000000000e+00 1.0996190000000000e+01 1.0256300000000000e+01 4.7824499999999999e+00 0 0 0
6295 444 4 0.0000000000000000e+00 1.1841820000000000e+01 8.7911099999999998e+00 0.0000000000000000e+00 0 0 0
6297 444 4 -4.8610000000000000e-02 1.1841870000000000e+01 8.7911099999999998e+00 7.1781899999999998e+00 0 0 0
6300 444 4 0.0000000000000000e+00 1.5225519999999999e+01 8.7911099999999998e+00 2.3926400000000001e+00 0 0 0
6302 444 4 0.0000000000000000e+00 1.3533970000000000e+01 8.7911099999999998e+00 4.7824400000000002e+00 0 0 0
6296 444 4 0.0000000000000000e+00 1.4379600000000000e+01 1.0256300000000000e+01 0.0000000000000000e+00 0 0 0
6298 444 4 -4.8610000000000000e-02 1.4379650000000000e+01 1.0256300000000000e+01 7.1781600000000001e+00 0 0 0
6299 444 4 0.0000000000000000e+00 1.2687749999999999e+01 1.0256300000000000e+01 2.3926400000000001e+00 0 0 0
2848 444 2 -8.2999999999999996e-01 6.6454243598751033e+00 5.7557780511734533e+00 1.0956719902275069e+01 5 1 0
3112 444 2 -8.2999999999999996e-01 2.2479857546347759e+00 9.8883215685220573e+00 1.0252426578400522e+01 -1 -7 0
40 444 2 -8.2999999999999996e-01 3.9460548012935877e+00 5.0006864447912243e+00 1.0686208064245349e+01 -1 1 0
42 444 1 4.1499999999999998e-01 3.4601491650428096e+00 5.6119997866928752e+00 1.0132651952762055e+01 -1 1 0
41 444 1 4.1499999999999998e-01 4.8033231635188383e+00 5.4106296888020822e+00 1.0801404117637929e+01 -1 1 0
2716 444 2 -8.2999999999999996e-01 3.0058375532046178e+00 7.4583064004575146e+00 1.3328195611838048e+01 -2 -1 0
2718 444 1 4.1499999999999998e-01 2.2553185188086342e+00 7.7422645427151373e+00 1.2806351835729579e+01 -2 -1 0
2717 444 1 4.1499999999999998e-01 3.7493231344513527e+00 7.5106548772171733e+00 1.2727594724256898e+01 -2 -1 0
2849 444 1 4.1499999999999998e-01 6.6741309070424446e+00 5.0511444812030595e+00 1.0309494868612353e+01 5 1 0
2850 444 1 4.1499999999999998e-01 7.4793414673755816e+00 6.2134844753154308e+00 1.0850325247999063e+01 5 1 0
5270 444 1 4.1499999999999998e-01 6.1649306245579192e+00 7.0974660587497178e+00 1.2173516956474129e+01 3 2 0
5269 444 2 -8.2999999999999996e-01 5.6449223780384914e+00 7.7090563868318327e+00 1.2694843408016839e+01 3 2 0
4637 444 1 4.1499999999999998e-01 5.5696969684291464e-01 3.9855777583873140e+00 1.3430498755882031e+01 1 -1 0
5152 444 2 -8.2999999999999996e-01 1.8546112059219391e+00 6.7819954031335623e+00 9.9426797662999515e+00 1 -2 0
5154 444 1 4.1499999999999998e-01 2.0276283441993654e+00 7.5765955677608048e+00 9.4377958089131671e+00 1 -2 0
4240 444 2 -8.2999999999999996e-01 7.1250656294488115e+00 3.1782174817690687e+00 1.0533362697941069e+01 0 0 0
4241 444 1 4.1499999999999998e-01 7.0271038362763063e+00 2.3311279783127397e+00 1.0098535186441612e+01 0 0 0
3114 444 1 4.1499999999999998e-01 3.1187919594923095e+00 9.5642605909481482e+00 1.0482456149976294e+01 -1 -7 0
3092 444 1 4.1499999999999998e-01 5.1582904229198672e+00 8.8540495507266090e+00 1.1768756238738156e+01 1 0 0
1681 444 2 -8.2999999999999996e-01 2.7555613138654662e+00 7.6517128386373434e+00 1.5856009701677291e+01 -1 -1 0
1683 444 1 4.1499999999999998e-01 2.9008329405701532e+00 7.6665513870967095e+00 1.4910013968410718e+01 -1 -1 0
1581 444 1 4.1499999999999998e-01 1.3619761799326113e-02 7.4662490451097074e+00 1.4409076308514701e+01 -2 -2 0
5153 444 1 4.1499999999999998e-01 9.5213955691722296e-01 6.8819128603104085e+00 1.0245654148961796e+01 1 -2 0
1682 444 1 4.1499999999999998e-01 1.8139403349826020e+00 7.7913469337678602e+00 1.5956429633529391e+01 -1 -1 0
2577 444 1 4.1499999999999998e-01 1.9241325177072317e+00 5.5110190244357415e+00 1.3165305835438568e+01 4 2 0
2016 444 1 4.1499999999999998e-01 6.8107208770769390e+00 4.5581207856006447e+00 1.2433280038915447e+01 3 2 0
3093 444 1 4.1499999999999998e-01 5.5321871096881443e+00 9.0266463436076840e+00 1.0311942294253253e+01 1 0 0
3091 444 2 -8.2999999999999996e-01 4.8552965263017667e+00 9.2489931652186232e+00 1.0951170668189627e+01 1 0 0
3113 444 1 4.1499999999999998e-01 2.3905162543970571e+00 1.0428436595352011e+01 9.4751281496916260e+00 -1 -7 0
2575 444 2 -8.2999999999999996e-01 2.0826956566122172e+00 4.6346820680871135e+00 1.3516195309758750e+01 4 2 0
2576 444 1 4.1499999999999998e-01 2.9973741398563565e+00 4.4519748544655444e+00 1.3301221728930807e+01 4 2 0
5271 444 1 4.1499999999999998e-01 6.1855284174286567e+00 7.8885980303680396e+00 1.3464091042274813e+01 3 2 0
5232 444 1 4.1499999999999998e-01 5.2905356635537446e+00 9.8977680095173071e+00 1.4939347017109021e+01 4 -1 0
3210 444 1 4.1499999999999998e-01 2.3156706368022317e+00 1.2978797950279830e+00 9.5020444873695720e+00 0 0 0
3208 444 2 -8.2999999999999996e-01 2.6737383859660020e+00 1.7328167545779569e+00 1.0275897953017298e+01 0 0 0
55 444 2 -8.2999999999999996e-01 6.7400431523213848e+00 1.4861382099926683e+00 1.3579892672003414e+01 0 1 0
3534 444 1 4.1499999999999998e-01 4.2193381290720646e+00 3.6302157189424502e+00 1.1944665311909887e+01 3 2 0
5773 444 2 -8.2999999999999996e-01 5.3231038097608412e+00 7.0214033978577035e+00 1.6173783365421855e+01 2 1 0
5774 444 1 4.1499999999999998e-01 4.4027393385173399e+00 7.0455619006112373e+00 1.5911910333658732e+01 2 1 0
5775 444 1 4.1499999999999998e-01 5.7358221185860865e+00 7.7191653244489471e+00 1.5664839563676752e+01 2 1 0
3789 444 1 4.1499999999999998e-01 2.0307965945265520e+00 4.4635678822963749e+00 1.0603330345367571e+01 0 1 0
3870 444 1 4.1499999999999998e-01 6.5703587726535684e+00 4.4396835870509825e+00 1.4973519551529897e+01 1 1 0
3868 444 2 -8.2999999999999996e-01 6.3117846742405188e+00 4.4991770625718051e+00 1.5893210728035134e+01 1 1 0
1579 444 2 -8.2999999999999996e-01 1.9245355755418075e-01 7.7611082131392042e+00 1.5301997608901805e+01 -2 -2 0
2014 444 2 -8.2999999999999996e-01 6.5440099367666038e+00 4.1146216840084087e+00 1.3238517070555893e+01 3 2 0
2015 444 1 4.1499999999999998e-01 6.2412330179310764e+00 3.2538231491480976e+00 1.2949406702114997e+01 3 2 0
5230 444 2 -8.2999999999999996e-01 6.0557024591180477e+00 9.3736363875526809e+00 1.5176069859758307e+01 4 -1 0
4558 444 2 -8.2999999999999996e-01 5.7543057883183941e+00 3.0171402665853102e-02 1.1001524058200449e+01 -1 0 0
1831 444 2 -8.2999999999999996e-01 7.4619296994264213e+00 9.5856247654812421e+00 1.0115521796944192e+01 -2 -3 0
1833 444 1 4.1499999999999998e-01 7.4406380252408866e+00 1.0408431352173158e+01 1.0604160773543589e+01 -2 -3 0
56 444 1 4.1499999999999998e-01 7.3818998283599617e+00 1.5980702639913582e+00 1.4281122639878967e+01 0 1 0
5231 444 1 4.1499999999999998e-01 6.7080347159631648e+00 9.5862254824847479e+00 1.4508611679385149e+01 4 -1 0
2667 444 1 4.1499999999999998e-01 3.3151525766030470e+00 1.5249870911927685e+00 1.3976217108851966e+01 -1 4 0
3788 444 1 4.1499999999999998e-01 1.0862750658904177e+00 4.4498790505668993e+00 9.4202889245028416e+00 0 1 0
4560 444 1 4.1499999999999998e-01 5.5403952505125860e+00 7.7417203225141962e-01 1.1564495927478175e+01 -1 0 0
1427 444 1 4.1499999999999998e-01 2.4814073654772089e+00 3.6414338742165380e+00 1.4932132252504116e+01 3 1 0
3869 444 1 4.1499999999999998e-01 5.9699360363864864e+00 5.3880663999343295e+00 1.5989372836967528e+01 1 1 0
3209 444 1 4.1499999999999998e-01 2.3283035612234309e+00 2.6244068151948738e+00 1.0231470080804037e+01 0 0 0
1426 444 2 -8.2999999999999996e-01 2.3674297747863098e+00 3.1717672987001730e+00 1.5758361622881642e+01 3 1 0
3978 444 1 4.1499999999999998e-01 4.9501773815030581e-01 1.1673936428695084e+00 1.2082739255467009e+01 0 -1 0
2665 444 2 -8.2999999999999996e-01 3.7626277609718333e+00 7.0226742895534933e-01 1.4174030578675996e+01 -1 4 0
3787 444 2 -8.2999999999999996e-01 1.4109852739911448e+00 3.9034957181989109e+00 1.0136012839685328e+01 0 1 0
3532 444 2 -8.2999999999999996e-01 3.9979444681529679e+00 2.7911020799002269e+00 1.2348527955207999e+01 3 2 0
2675 444 1 4.1499999999999998e-01 4.3528646946708847e+00 1.1261289709017504e+01 1.1245592187101758e+01 -2 0 0
4559 444 1 4.1499999999999998e-01 5.4489785073251271e+00 2.9108486273915368e-01 1.0132656200899767e+01 -1 0 0
57 444 1 4.1499999999999998e-01 5.8942490011676938e+00 1.4768003144161432e+00 1.4027974368893540e+01 0 1 0
3533 444 1 4.1499999999999998e-01 3.6306082993603037e+00 2.2704670621918930e+00 1.1634220457460763e+01 3 2 0
3585 444 1 4.1499999999999998e-01 1.3704904712117907e-01 3.2460919980670971e-01 9.2498425172457033e+00 1 0 0
2666 444 1 4.1499999999999998e-01 3.6371041789484964e+00 1.6646981621473234e-01 1.3390834154827118e+01 -1 4 0
2954 444 1 4.1499999999999998e-01 1.4377620044669479e+01 5.9992805874228363e+00 1.0950902550848790e+01 0 1 0
3658 444 2 -8.2999999999999996e-01 8.0414280492883794e+00 9.5657110538686165e+00 1.3519923935654324e+01 -4 -2 0
3659 444 1 4.1499999999999998e-01 8.3077892909811215e+00 1.0408539614188816e+01 1.3152603921411728e+01 -4 -2 0
4242 444 1 4.1499999999999998e-01 8.0584560144765458e+00 3.3780508394245716e+00 1.0462074355453598e+01 0 0 0
908 444 1 4.1499999999999998e-01 1.3424953632022616e+01 8.3721438665921735e+00 9.2828671555634017e+00 2 4 0
3660 444 1 4.1499999999999998e-01 8.7516262782296490e+00 8.9674730633077697e+00 1.3287627003533469e+01 -4 -2 0
2099 444 1 4.1499999999999998e-01 8.5802080057226444e+00 8.3147105191872530e+00 1.0512654005035373e+01 1 3 0
1832 444 1 4.1499999999999998e-01 7.6441503233983825e+00 9.8471606013513124e+00 9.2129551264022940e+00 -2 -3 0
3548 444 1 4.1499999999999998e-01 8.1950500761725049e+00 1.1352808003712953e+00 1.2305179511812167e+01 0 2 0
5660 444 1 4.1499999999999998e-01 8.2127165826206276e+00 3.5723021875405903e+00 1.3699052174036213e+01 -2 1 0
5210 444 1 4.1499999999999998e-01 9.2877146970556872e+00 7.5909339702193268e-01 1.4047849125951052e+01 0 -1 0
3641 444 1 4.1499999999999998e-01 1.4214702571467017e+01 3.4232921523172410e+00 1.0222968608942377e+01 1 -3 0
5659 444 2 -8.2999999999999996e-01 9.0780623706352443e+00 3.4551739490778930e+00 1.4091085382789649e+01 -2 1 0
5661 444 1 4.1499999999999998e-01 9.3637831026091867e+00 4.3418069156653631e+00 1.4311264566443148e+01 -2 1 0
2098 444 2 -8.2999999999999996e-01 8.9944852170608112e+00 7.6018520788155675e+00 1.0998904059650247e+01 1 3 0
2100 444 1 4.1499999999999998e-01 9.6785503862725033e+00 8.0288975766294026e+00 1.1514577263748491e+01 1 3 0
326 444 1 4.1499999999999998e-01 1.0958818799937497e+01 6.0584833952717441e+00 1.4817454924055921e+01 4 0 0
1758 444 1 4.1499999999999998e-01 1.0654459607642307e+01 2.8770913291937261e+00 1.4060442567800939e+01 -3 0 0
325 444 2 -8.2999999999999996e-01 1.0041267170652086e+01 5.8649163010025891e+00 1.5009451574163533e+01 4 0 0
1884 444 1 4.1499999999999998e-01 1.3288812410189928e+01 5.8324947002833154e+00 1.2751131969314411e+01 4 1 0
5776 444 2 -8.2999999999999996e-01 1.1438290966389877e+01 6.0341472497097079e+00 1.0374446972677340e+01 1 -1 0
1882 444 2 -8.2999999999999996e-01 1.2392287658881690e+01 5.6028013414204620e+00 1.2995502676317198e+01 4 1 0
5777 444 1 4.1499999999999998e-01 1.2047000722305205e+01 6.7699442792804145e+00 1.0308818758901788e+01 1 -1 0
2955 444 1 4.1499999999999998e-01 1.3548630332518446e+01 5.4144599363369448e+00 9.8272227768903999e+00 0 1 0
909 444 1 4.1499999999999998e-01 1.3221170313138710e+01 8.7966971952773605e+00 1.0721659095854770e+01 2 4 0
907 444 2 -8.2999999999999996e-01 1.3105283554405618e+01 8.0551534138922936e+00 1.0127592074644896e+01 2 4 0
1883 444 1 4.1499999999999998e-01 1.1962662516968658e+01 5.3964460167004269e+00 1.2165398729419962e+01 4 1 0
5778 444 1 4.1499999999999998e-01 1.0581870646276922e+01 6.4127305318189123e+00 1.0175824715107684e+01 1 -1 0
1757 444 1 4.1499999999999998e-01 1.2011047907014415e+01 3.4233216332800049e+00 1.4451845012640803e+01 -3 0 0
5569 444 2 -8.2999999999999996e-01 1.2595532059565912e+01 7.0034134289093366e+00 1.5711001425512530e+01 1 -3 0
5571 444 1 4.1499999999999998e-01 1.2680037183080126e+01 6.3589638598009941e+00 1.5008309819331521e+01 1 -3 0
1756 444 2 -8.2999999999999996e-01 1.1527656048866657e+01 2.6044463857930866e+00 1.4342266246369052e+01 -3 0 0
1491 444 1 4.1499999999999998e-01 1.0380513378017538e+01 2.8121118092331083e+00 9.6850624885616039e+00 -1 0 0
1489 444 2 -8.2999999999999996e-01 9.7928932305996668e+00 3.4022023794094971e+00 1.0157002983144810e+01 -1 0 0
1490 444 1 4.1499999999999998e-01 1.0144659903501571e+01 4.2763726674908922e+00 9.9887210590206212e+00 -1 0 0
2754 444 1 4.1499999999999998e-01 1.3241515549537896e+01 1.0251098991740163e+01 1.2893452044296545e+01 1 0 0
150 444 1 4.1499999999999998e-01 1.4366071741578541e+01 8.2624130334947523e+00 1.2598738237574278e+01 1 2 0
2752 444 2 -8.2999999999999996e-01 1.3370602840869434e+01 1.0002899647824423e+01 1.1978047532142572e+01 1 0 0
2753 444 1 4.1499999999999998e-01 1.3111984000360911e+01 1.0778543684579111e+01 1.1480328243443537e+01 1 0 0
3937 444 2 -8.2999999999999996e-01 1.4103921915908307e+01 2.0621939769677606e+00 1.3078751844006383e+01 1 0 0
3938 444 1 4.1499999999999998e-01 1.3194513917221963e+01 1.9927001911901161e+00 1.3369234380039339e+01 1 0 0
455 444 1 4.1499999999999998e-01 1.1885056029426558e+01 8.9048420589848867e+00 1.2190860310281499e+01 -1 -1 0
456 444 1 4.1499999999999998e-01 1.1354459495361887e+01 7.6616041352061002e+00 1.2872565596664282e+01 -1 -1 0
454 444 2 -8.2999999999999996e-01 1.1090513002941279e+01 8.5312635926660256e+00 1.2572137976078590e+01 -1 -1 0
2313 444 1 4.1499999999999998e-01 1.1741431424248784e+01 8.5537250774897302e+00 1.6088584596410293e+01 -2 1 0
2312 444 1 4.1499999999999998e-01 1.1319009801395481e+01 9.7304934958654083e+00 1.5234961822469025e+01 -2 1 0
3939 444 1 4.1499999999999998e-01 1.4050370355054591e+01 2.0740283084287223e+00 1.2123123972266439e+01 1 0 0
3640 444 2 -8.2999999999999996e-01 1.3835739979205275e+01 2.5560016365564699e+00 1.0080045545104850e+01 1 -3 0
2311 444 2 -8.2999999999999996e-01 1.1139035985171276e+01 9.2973536699633428e+00 1.6069366694312933e+01 -2 1 0
3642 444 1 4.1499999999999998e-01 1.3293233152176221e+01 2.6570710779388076e+00 9.2979309108739443e+00 1 -3 0
148 444 2 -8.2999999999999996e-01 1.4675518769092735e+01 7.3699046435264552e+00 1.2444130307477861e+01 1 2 0
327 444 1 4.1499999999999998e-01 9.7998046349698615e+00 6.4956031621261818e+00 1.5687804291771508e+01 4 0 0
5209 444 2 -8.2999999999999996e-01 9.4134840831833291e+00 4.7381905735933172e-01 1.4952853664237734e+01 0 -1 0
2953 444 2 -8.2999999999999996e-01 1.4358174828763442e+01 5.2797745977697428e+00 1.0319899084627025e+01 0 1 0
3240 444 1 4.1499999999999998e-01 1.2478815993736537e+01 1.1539453962441778e+01 1.4051682398501583e+01 -2 1 0
3549 444 1 4.1499999999999998e-01 9.1974707396054036e+00 1.9554605741503928e+00 1.1521372503350900e+01 0 2 0
1218 444 1 4.1499999999999998e-01 1.4992746279608321e+01 2.7788086282174520e+00 1.4409543881320396e+01 0 3 0
5211 444 1 4.1499999999999998e-01 1.0316123085593503e+01 7.1748059861908831e-01 1.5158047199757867e+01 0 -1 0
3547 444 2 -8.2999999999999996e-01 9.1049971019823754e+00 1.1364796005460942e+00 1.2008148600420602e+01 0 2 0
3726 444 1 4.1499999999999998e-01 1.5180603017260012e+01 1.1327462708827388e+01 1.3310603168165521e+01 0 -1 0
1294 444 2 -8.2999999999999996e-01 1.0750517913071061e+01 1.1652376251471381e+01 1.4246264064619139e+01 0 3 0
5161 444 2 -8.2999999999999996e-01 8.9511335880511300e+00 1.1560280387791719e+01 1.1414498148018380e+01 -4 -2 0
1296 444 1 4.1499999999999998e-01 1.0344097663198319e+01 1.1432746314801209e+01 1.3407921887482271e+01 0 3 0
3238 444 2 -8.2999999999999996e-01 1.3432634667584429e+01 1.1525475623136693e+01 1.4130843240491588e+01 -2 1 0
4467 444 1 4.1499999999999998e-01 7.1507287984386525e-01 4.7512982231848122e+00 2.3779137436592837e+01 -1 3 0
2027 444 1 4.1499999999999998e-01 7.6101044715141937e+00 4.4937739852668681e+00 1.7190101840916075e+01 2 -5 0
1163 444 1 4.1499999999999998e-01 3.2764675206867461e-01 8.0584853011849731e+00 2.2283138497972836e+01 0 5 0
2630 444 1 4.1499999999999998e-01 3.8795103537451108e+00 7.4925541895248671e+00 1.7553177383237585e+01 0 -2 0
5784 444 1 4.1499999999999998e-01 7.3130394102980656e+00 2.3660877576613468e+00 1.6980614713634033e+01 -3 0 0
5686 444 2 -8.2999999999999996e-01 3.7186441321563557e-01 5.7990345828543450e+00 1.9288432840613968e+01 2 1 0
4176 444 1 4.1499999999999998e-01 3.0730615543323875e-01 1.0879556424212348e+01 2.2285596777277220e+01 1 0 0
4813 444 2 -8.2999999999999996e-01 2.2232503991599346e+00 7.3432260306468118e+00 2.0457896323982407e+01 0 -1 0
166 444 2 -8.2999999999999996e-01 4.6372516399218879e+00 1.0921351167578203e+01 2.3103460996948471e+01 1 -1 0
5688 444 1 4.1499999999999998e-01 9.8555913846357923e-01 6.4208496779939725e+00 1.9679529631393486e+01 2 1 0
2121 444 1 4.1499999999999998e-01 4.2734867081144206e+00 1.3131035798878961e+00 1.6282729343280856e+01 2 1 0
4814 444 1 4.1499999999999998e-01 2.7815792827063581e+00 7.6041191645088508e+00 1.9725478740040774e+01 0 -1 0
5987 444 1 4.1499999999999998e-01 1.6789697233474747e+00 2.5858893565407550e+00 2.0638240808328259e+01 -2 0 0
5783 444 1 4.1499999999999998e-01 6.3035828630228457e+00 1.2381711106360063e+00 1.6954211199070226e+01 -3 0 0
2631 444 1 4.1499999999999998e-01 4.7006481671112317e+00 8.2961037429384774e+00 1.8539045542262020e+01 0 -2 0
969 444 1 4.1499999999999998e-01 2.7375657903048465e+00 6.0647963105223814e+00 1.6918058108518860e+01 2 0 0
2629 444 2 -8.2999999999999996e-01 3.8522045315521476e+00 7.8655168547171854e+00 1.8434304819687185e+01 0 -2 0
5768 444 1 4.1499999999999998e-01 3.4623801936562884e+00 5.9275531538500559e+00 2.1779439162701276e+01 -1 1 0
2017 444 2 -8.2999999999999996e-01 2.6082099242359105e+00 2.0035474950628429e+00 1.9178643812562079e+01 5 0 0
2018 444 1 4.1499999999999998e-01 3.4371838850643890e+00 2.4797762480153445e+00 1.9225979941764521e+01 5 0 0
2119 444 2 -8.2999999999999996e-01 4.5389897636794139e+00 8.5182053551446446e-01 1.7078316234327904e+01 2 1 0
5769 444 1 4.1499999999999998e-01 3.1120038818335818e+00 5.3691203721528433e+00 2.3142261405243026e+01 -1 1 0
3808 444 2 -8.2999999999999996e-01 4.3300977331736146e+00 2.3623820411476255e+00 2.3304940177215755e+01 -2 0 0
3810 444 1 4.1499999999999998e-01 3.6856569657590597e+00 2.4657145340181779e+00 2.2604761351306397e+01 -2 0 0
3009 444 1 4.1499999999999998e-01 4.5997941502556641e+00 4.7045684424938745e+00 1.8062571800825186e+01 -1 -1 0
3007 444 2 -8.2999999999999996e-01 5.2560158521466258e+00 4.0546723221261098e+00 1.8314047839281368e+01 -1 -1 0
3008 444 1 4.1499999999999998e-01 5.7983790842169780e+00 3.9465390424118758e+00 1.7532778591076941e+01 -1 -1 0
968 444 1 4.1499999999999998e-01 1.9724883679059850e+00 5.6035072032513593e+00 1.8140254667159610e+01 2 0 0
967 444 2 -8.2999999999999996e-01 2.6035590694223099e+00 5.3054210999154376e+00 1.7485176985002720e+01 2 0 0
2881 444 2 -8.2999999999999996e-01 6.1620252340667712e+00 4.5832611782185744e+00 2.1018238648173696e+01 0 1 0
2883 444 1 4.1499999999999998e-01 6.2202290540129503e+00 4.9489508148741672e+00 2.0135563492459934e+01 0 1 0
2019 444 1 4.1499999999999998e-01 2.8210879612529856e+00 1.1973498055249923e+00 1.8708579236796876e+01 5 0 0
2882 444 1 4.1499999999999998e-01 5.2796011798544082e+00 4.8078940103770771e+00 2.1313365447138253e+01 0 1 0
5641 444 2 -8.2999999999999996e-01 2.9324680422733600e+00 1.0900562269941261e+01 2.0965561503661540e+01 -2 0 0
2820 444 1 4.1499999999999998e-01 5.5807645963267305e+00 7.0839648684825844e+00 2.4258025759254000e+01 3 3 0
5642 444 1 4.1499999999999998e-01 2.0884639873498760e+00 1.0980887356698744e+01 2.1409900929948254e+01 -2 0 0
5767 444 2 -8.2999999999999996e-01 3.8520942345248845e+00 5.5252108596936980e+00 2.2555632122052991e+01 -1 1 0
5643 444 1 4.1499999999999998e-01 3.5284500062886273e+00 1.0574010511224177e+01 2.1639655168279326e+01 -2 0 0
5826 444 1 4.1499999999999998e-01 6.1653625667895611e+00 1.0477929164911783e+01 2.0395881622135487e+01 3 -4 0
3809 444 1 4.1499999999999998e-01 5.1409182994264970e+00 2.1299080906477430e+00 2.2852438191178614e+01 -2 0 0