LAMMPS data file via write_data, version 11 Aug 2017, timestep = 5000000

7168 atoms
4 atom types
4000 bonds
1 bond types
2000 angles
1 angle types

0.0000000000000000e+00 4.5679949999999998e+01 xlo xhi
0.0000000000000000e+00 4.6885919999999999e+01 ylo yhi
0.0000000000000000e+00 6.5000000000000000e+01 zlo zhi

Masses

1 1.0079
2 15.9994
3 22.9898
4 107.868

Bond Coeffs # harmonic

1 450 0.9572

Angle Coeffs # harmonic

1 55 104.52

Atoms # full

6017 444 4 0.0000000000000000e+00 1.6907200000000000e+00 0.0000000000000000e+00 0.0000000000000000e+00 0 0 0
6018 444 4 0.0000000000000000e+00 4.2285000000000004e+00 1.4651900000000000e+00 0.0000000000000000e+00 0 0 0
6019 444 4 -5.5559999999999998e-02 1.6907700000000001e+00 0.0000000000000000e+00 7.1781499999999996e+00 0 0 0
6020 444 4 -5.5559999999999998e-02 4.2285500000000003e+00 1.4651900000000000e+00 7.1781499999999996e+00 0 0 0
6021 444 4 0.0000000000000000e+00 2.5366499999999998e+00 1.4651900000000000e+00 2.3926400000000001e+00 0 0 0
6022 444 4 0.0000000000000000e+00 5.0744199999999999e+00 0.0000000000000000e+00 2.3926400000000001e+00 0 0 0
6023 444 4 0.0000000000000000e+00 8.4509000000000001e-01 1.4651900000000000e+00 4.7824200000000001e+00 0 0 0
6024 444 4 0.0000000000000000e+00 3.3828600000000000e+00 0.0000000000000000e+00 4.7824499999999999e+00 0 0 0
6025 444 4 0.0000000000000000e+00 1.6907200000000000e+00 2.9303699999999999e+00 0.0000000000000000e+00 0 0 0
6026 444 4 0.0000000000000000e+00 4.2285000000000004e+00 4.3955599999999997e+00 0.0000000000000000e+00 0 0 0
6027 444 4 -5.5559999999999998e-02 1.6907700000000001e+00 2.9303699999999999e+00 7.1781899999999998e+00 0 0 0
6028 444 4 -5.5559999999999998e-02 4.2285500000000003e+00 4.3955599999999997e+00 7.1781600000000001e+00 0 0 0
6029 444 4 0.0000000000000000e+00 2.5366499999999998e+00 4.3955599999999997e+00 2.3926400000000001e+00 0 0 0
6030 444 4 0.0000000000000000e+00 5.0744199999999999e+00 2.9303699999999999e+00 2.3926400000000001e+00 0 0 0
6031 444 4 0.0000000000000000e+00 8.4509000000000001e-01 4.3955599999999997e+00 4.7824499999999999e+00 0 0 0
6032 444 4 0.0000000000000000e+00 3.3828700000000000e+00 2.9303699999999999e+00 4.7824400000000002e+00 0 0 0
6033 444 4 0.0000000000000000e+00 1.6907200000000000e+00 5.8607399999999998e+00 0.0000000000000000e+00 0 0 0
6034 444 4 0.0000000000000000e+00 4.2285000000000004e+00 7.3259299999999996e+00 0.0000000000000000e+00 0 0 0
6035 444 4 -5.5559999999999998e-02 1.6907700000000001e+00 5.8607399999999998e+00 7.1781499999999996e+00 0 0 0
6036 444 4 -5.5559999999999998e-02 4.2285500000000003e+00 7.3259299999999996e+00 7.1781499999999996e+00 0 0 0
6037 444 4 0.0000000000000000e+00 2.5366499999999998e+00 7.3259299999999996e+00 2.3926400000000001e+00 0 0 0
6038 444 4 0.0000000000000000e+00 5.0744199999999999e+00 5.8607399999999998e+00 2.3926400000000001e+00 0 0 0
6039 444 4 0.0000000000000000e+00 8.4509000000000001e-01 7.3259299999999996e+00 4.7824200000000001e+00 0 0 0
6040 444 4 0.0000000000000000e+00 3.3828600000000000e+00 5.8607399999999998e+00 4.7824499999999999e+00 0 0 0
6145 444 4 0.0000000000000000e+00 6.7662699999999996e+00 0.0000000000000000e+00 0.0000000000000000e+00 0 0 0
6147 444 4 -5.5559999999999998e-02 6.7663200000000003e+00 0.0000000000000000e+00 7.1781499999999996e+00 0 0 0
6149 444 4 0.0000000000000000e+00 7.6121999999999996e+00 1.4651900000000000e+00 2.3926400000000001e+00 0 0 0
6151 444 4 0.0000000000000000e+00 5.9206399999999997e+00 1.4651900000000000e+00 4.7824200000000001e+00 0 0 0
6153 444 4 0.0000000000000000e+00 6.7662699999999996e+00 2.9303699999999999e+00 0.0000000000000000e+00 0 0 0
6155 444 4 -5.5559999999999998e-02 6.7663200000000003e+00 2.9303699999999999e+00 7.1781899999999998e+00 0 0 0
6157 444 4 0.0000000000000000e+00 7.6121999999999996e+00 4.3955599999999997e+00 2.3926400000000001e+00 0 0 0
6159 444 4 0.0000000000000000e+00 5.9206399999999997e+00 4.3955599999999997e+00 4.7824499999999999e+00 0 0 0
6161 444 4 0.0000000000000000e+00 6.7662699999999996e+00 5.8607399999999998e+00 0.0000000000000000e+00 0 0 0
6163 444 4 -5.5559999999999998e-02 6.7663200000000003e+00 5.8607399999999998e+00 7.1781499999999996e+00 0 0 0
6165 444 4 0.0000000000000000e+00 7.6121999999999996e+00 7.3259299999999996e+00 2.3926400000000001e+00 0 0 0
6167 444 4 0.0000000000000000e+00 5.9206399999999997e+00 7.3259299999999996e+00 4.7824200000000001e+00 0 0 0
6146 444 4 0.0000000000000000e+00 9.3040500000000002e+00 1.4651900000000000e+00 0.0000000000000000e+00 0 0 0
6148 444 4 -5.5559999999999998e-02 9.3041000000000000e+00 1.4651900000000000e+00 7.1781499999999996e+00 0 0 0
6150 444 4 0.0000000000000000e+00 1.0149970000000000e+01 0.0000000000000000e+00 2.3926400000000001e+00 0 0 0
6152 444 4 0.0000000000000000e+00 8.4584100000000007e+00 0.0000000000000000e+00 4.7824499999999999e+00 0 0 0
6154 444 4 0.0000000000000000e+00 9.3040500000000002e+00 4.3955599999999997e+00 0.0000000000000000e+00 0 0 0
6156 444 4 -5.5559999999999998e-02 9.3041000000000000e+00 4.3955599999999997e+00 7.1781600000000001e+00 0 0 0
6158 444 4 0.0000000000000000e+00 1.0149970000000000e+01 2.9303699999999999e+00 2.3926400000000001e+00 0 0 0
6160 444 4 0.0000000000000000e+00 8.4584200000000003e+00 2.9303699999999999e+00 4.7824400000000002e+00 0 0 0
6162 444 4 0.0000000000000000e+00 9.3040500000000002e+00 7.3259299999999996e+00 0.0000000000000000e+00 0 0 0
6164 444 4 -5.5559999999999998e-02 9.3041000000000000e+00 7.3259299999999996e+00 7.1781499999999996e+00 0 0 0
6166 444 4 0.0000000000000000e+00 1.0149970000000000e+01 5.8607399999999998e+00 2.3926400000000001e+00 0 0 0
6168 444 4 0.0000000000000000e+00 8.4584100000000007e+00 5.8607399999999998e+00 4.7824499999999999e+00 0 0 0
6279 444 4 0.0000000000000000e+00 1.0996190000000000e+01 1.4651900000000000e+00 4.7824200000000001e+00 0 0 0
6287 444 4 0.0000000000000000e+00 1.0996190000000000e+01 4.3955599999999997e+00 4.7824499999999999e+00 0 0 0
6295 444 4 0.0000000000000000e+00 1.0996190000000000e+01 7.3259299999999996e+00 4.7824200000000001e+00 0 0 0
5 444 1 4.1499999999999998e-01 9.0427377412158343e+00 2.8205972998757916e+00 1.0492729843679067e+01 -2 2 0
5166 444 1 4.1499999999999998e-01 5.7674092187844197e+00 3.7272079346301443e+00 9.4903630137857071e+00 3 2 0
5164 444 2 -8.2999999999999996e-01 6.3015191044300609e+00 3.7679808419644765e+00 1.0283645002950394e+01 3 2 0
3010 444 2 -8.2999999999999996e-01 5.8086316268587455e+00 7.1096960399154838e+00 1.2891228252340174e+01 0 -2 0
18 444 1 4.1499999999999998e-01 3.3076636369140830e+00 4.9833896145831540e+00 1.1720753774005331e+01 6 -3 0
5165 444 1 4.1499999999999998e-01 6.7245724615212881e+00 4.6257163207405663e+00 1.0244297298795161e+01 3 2 0
1884 444 1 4.1499999999999998e-01 6.3866301010249966e+00 1.8182716652520942e-01 1.3287032372819718e+01 2 -2 0
3012 444 1 4.1499999999999998e-01 6.4577013720716785e+00 6.6576856648184277e+00 1.2352128921991918e+01 0 -2 0
6012 444 3 1.0000000000000000e+00 4.7752305204190684e+00 5.4797081426045944e+00 1.4138723643758405e+01 0 -3 0
4798 444 2 -8.2999999999999996e-01 2.9016866500982230e-01 5.1627367319958373e-01 1.6098991627914668e+01 4 0 0
4611 444 1 4.1499999999999998e-01 2.9568621609128659e-01 6.1768681231266456e+00 1.0814045432533689e+01 0 3 0
2560 444 2 -8.2999999999999996e-01 3.9931029890701009e+00 3.7727960154107603e+00 1.5655589282721820e+01 3 -2 0
16 444 2 -8.2999999999999996e-01 3.4549444938076257e+00 4.4093686091192383e+00 1.2472445705062418e+01 6 -3 0
2561 444 1 4.1499999999999998e-01 3.0699779622731738e+00 3.5634611658116064e+00 1.5797896872428327e+01 3 -2 0
1131 444 1 4.1499999999999998e-01 7.8574952436967997e+00 6.6482381462914670e+00 1.0119460892721778e+01 1 -1 0
1129 444 2 -8.2999999999999996e-01 7.8453922340225137e+00 6.0724565657576468e+00 1.0884026760018326e+01 1 -1 0
2492 444 1 4.1499999999999998e-01 7.7681778447601968e-01 4.4648755527776434e+00 1.5585322034428804e+01 3 1 0
2491 444 2 -8.2999999999999996e-01 1.1743675732247918e+00 3.6554463513981239e+00 1.5906274462867366e+01 3 1 0
4607 444 1 4.1499999999999998e-01 9.4770735410567646e+00 4.3899667062872121e+00 1.4197237785432556e+01 -2 -2 0
844 444 2 -8.2999999999999996e-01 3.3157529455768993e+00 6.2935586870076259e+00 1.0344484009494185e+01 -3 -2 0
845 444 1 4.1499999999999998e-01 3.1541757832289048e+00 6.2045468845701404e+00 9.4052279698020254e+00 -3 -2 0
2584 444 2 -8.2999999999999996e-01 2.4007681904931411e+00 2.0551319373825860e+00 1.1779030879199111e+01 4 0 0
6 444 1 4.1499999999999998e-01 7.5823741233556987e+00 2.5038333754528725e+00 1.0735410832803421e+01 -2 2 0
17 444 1 4.1499999999999998e-01 3.0590349096813618e+00 3.5755798116323958e+00 1.2218901408553242e+01 6 -3 0
2585 444 1 4.1499999999999998e-01 3.0207417120627933e+00 1.5608983002126526e+00 1.1242749417362788e+01 4 0 0
1212 444 1 4.1499999999999998e-01 6.4140315676111292e+00 3.5431317477975965e+00 1.2291078708526612e+01 -2 2 0
2360 444 1 4.1499999999999998e-01 6.2150352512833318e-01 3.4433213231132478e+00 1.0214433914531737e+01 -2 0 0
4 444 2 -8.2999999999999996e-01 8.4612088744451608e+00 2.1338211781508694e+00 1.0818911767906341e+01 -2 2 0
1130 444 1 4.1499999999999998e-01 8.7678706257404357e+00 5.8859889931684091e+00 1.1058656496314635e+01 1 -1 0
1210 444 2 -8.2999999999999996e-01 6.4993336362118619e+00 3.9008477941330479e+00 1.3174817907948212e+01 -2 2 0
1211 444 1 4.1499999999999998e-01 7.3400213436628743e+00 3.5675701705474383e+00 1.3488509814582617e+01 -2 2 0
2493 444 1 4.1499999999999998e-01 9.5681391008663730e-01 3.0014285028560788e+00 1.5242073454104979e+01 3 1 0
2562 444 1 4.1499999999999998e-01 4.4445723647253219e+00 2.9323770310537838e+00 1.5733717278914625e+01 3 -2 0
3184 444 2 -8.2999999999999996e-01 1.0556422785424321e+01 3.9204921893541771e+00 1.0357429682466579e+01 -4 -5 0
4610 444 1 4.1499999999999998e-01 1.6440381961751858e+00 5.4919369272127536e+00 1.0745405761327065e+01 0 3 0
5960 444 1 4.1499999999999998e-01 3.3920516858894936e+00 1.0323894938043916e+00 1.5545118654193015e+01 3 2 0
2586 444 1 4.1499999999999998e-01 1.6462836732803980e+00 2.1945077714413235e+00 1.1206702832419232e+01 4 0 0
4609 444 2 -8.2999999999999996e-01 7.0477998687255605e-01 5.3119536974297965e+00 1.0785807083437218e+01 0 3 0
4606 444 2 -8.2999999999999996e-01 9.1623714233903488e+00 3.4952221339360738e+00 1.4068293321789842e+01 -2 -2 0
5770 444 2 -8.2999999999999996e-01 2.9672663215487676e+00 6.9430530951576461e+00 1.4576549058840463e+01 -1 3 0
4608 444 1 4.1499999999999998e-01 9.7015991208019123e+00 3.1514691368378789e+00 1.3356043792073674e+01 -2 -2 0
5772 444 1 4.1499999999999998e-01 2.3737024109707785e+00 7.1226319381703851e+00 1.3847394389279120e+01 -1 3 0
5281 444 2 -8.2999999999999996e-01 4.7982393372813217e+00 1.1331327043754682e+00 1.3004626790828448e+01 1 6 0
1712 444 1 4.1499999999999998e-01 1.0332338466051214e+01 6.6850735221215167e+00 1.3617769762603158e+01 2 5 0
3060 444 1 4.1499999999999998e-01 1.0133707909043402e+01 7.4226459752613474e+00 1.0983186016442916e+01 -4 1 0
5540 444 1 4.1499999999999998e-01 3.2555556606617131e-02 1.4901780675225205e+00 1.3456703352997486e+01 2 0 0
2359 444 2 -8.2999999999999996e-01 2.8680118131833410e-01 2.5510885925553319e+00 1.0304583659952211e+01 -2 0 0
5283 444 1 4.1499999999999998e-01 4.3976412187977454e+00 1.9862272949372248e+00 1.3171907190157436e+01 1 6 0
5541 444 1 4.1499999999999998e-01 1.0795505647999133e+00 2.5310495750607642e+00 1.3121615830637166e+01 2 0 0
3058 444 2 -8.2999999999999996e-01 1.0415046047652993e+01 6.5126247654836682e+00 1.0888623078924695e+01 -4 1 0
1711 444 2 -8.2999999999999996e-01 1.0425665132290105e+01 5.7861558878794312e+00 1.3933157436181000e+01 2 5 0
846 444 1 4.1499999999999998e-01 3.9330814332481703e+00 7.0217938957606547e+00 1.0413845276214122e+01 -3 -2 0
5539 444 2 -8.2999999999999996e-01 3.5102190873063654e-01 2.3545426916618868e+00 1.3716866842614754e+01 2 0 0
1617 444 1 4.1499999999999998e-01 3.1979722726184306e-01 3.4220412882215118e-01 1.0194764379564452e+01 3 2 0
4800 444 1 4.1499999999999998e-01 1.2447422101060801e+00 5.7914048110181671e-01 1.6066293974807586e+01 4 0 0
3748 444 2 -8.2999999999999996e-01 6.0817979402115148e+00 6.3372451470395665e+00 1.5999333008385223e+01 -4 0 0
3185 444 1 4.1499999999999998e-01 1.0525793736310352e+01 4.0892817268290278e+00 9.4157268367195499e+00 -4 -5 0
1671 444 1 4.1499999999999998e-01 8.8259941351483402e+00 2.6931117819155053e+00 1.5682722175929250e+01 -2 0 0
3059 444 1 4.1499999999999998e-01 1.1351935957898505e+01 6.5693505637665446e+00 1.0700869570795177e+01 -4 1 0
5771 444 1 4.1499999999999998e-01 2.3904383275869963e+00 6.8149312166734735e+00 1.5329600861824273e+01 -1 3 0
1550 444 1 4.1499999999999998e-01 2.4853674671852488e-01 7.5850912964383976e+00 1.2166432302552160e+01 2 4 0
5459 444 1 4.1499999999999998e-01 9.9952232659203144e+00 1.0880706899234076e+00 1.0390432525126920e+01 0 -2 0
5458 444 2 -8.2999999999999996e-01 1.0554590945126780e+01 3.1180918528488555e-01 1.0417965244815429e+01 0 -2 0
5959 444 2 -8.2999999999999996e-01 2.6981659111360314e+00 3.9651395572600456e-01 1.5370712319013547e+01 3 2 0
5282 444 1 4.1499999999999998e-01 4.2831778000703027e+00 7.6252161250754735e-01 1.2287973862268414e+01 1 6 0
1549 444 2 -8.2999999999999996e-01 6.2206180625307761e-01 7.6627284592552325e+00 1.3044318116391718e+01 2 4 0
3186 444 1 4.1499999999999998e-01 1.0673157619014550e+01 4.7845372593627786e+00 1.0752438887996355e+01 -4 -5 0
347 444 1 4.1499999999999998e-01 7.8532608272718107e+00 3.7841059658651333e-01 1.0212238659368053e+01 -1 -2 0
3264 444 1 4.1499999999999998e-01 1.1312010016854609e+01 6.0951674004009693e+00 1.5886638322335960e+01 2 0 0
562 444 2 -8.2999999999999996e-01 1.1151249945792271e+01 2.2127443982985251e+00 1.2840140167161058e+01 5 6 0
5460 444 1 4.1499999999999998e-01 1.1411969175369086e+01 6.2342170200800451e-01 1.0128082174662861e+01 0 -2 0
564 444 1 4.1499999999999998e-01 1.0598204691398118e+01 1.5956287138414476e+00 1.2361035582827098e+01 5 6 0
1713 444 1 4.1499999999999998e-01 1.1075928898808897e+01 5.3937242476230542e+00 1.3350587366445037e+01 2 5 0
3011 444 1 4.1499999999999998e-01 5.2387863526332294e+00 7.5509328218164953e+00 1.2261292310742085e+01 0 -2 0
5961 444 1 4.1499999999999998e-01 2.9180383786666377e+00 3.0268832882164531e-02 1.4514118466942035e+01 3 2 0
3749 444 1 4.1499999999999998e-01 5.5759602286840284e+00 6.9771656886479461e+00 1.6500194889171329e+01 -4 0 0
677 444 1 4.1499999999999998e-01 4.7712862182884473e-02 5.9523435830964400e-01 2.2819797751514439e+01 -2 -4 0
3775 444 2 -8.2999999999999996e-01 1.0073501709512673e+01 1.0204330426197061e+00 1.8240108204586441e+01 3 -4 0
970 444 2 -8.2999999999999996e-01 1.9747781589305218e+00 5.0388213639419366e+00 2.2793958696692911e+01 -4 -3 0
1368 444 1 4.1499999999999998e-01 5.0944732064046216e-01 4.5213264110316143e+00 1.9865043173381284e+01 -3 1 0
971 444 1 4.1499999999999998e-01 1.4318652482001306e+00 4.8831407518256222e+00 2.3566772458425145e+01 -4 -3 0
3776 444 1 4.1499999999999998e-01 1.0619154967680206e+01 5.4724798774133365e-01 1.7611943404404180e+01 3 -4 0
972 444 1 4.1499999999999998e-01 1.3478066243062325e+00 5.1692585250378409e+00 2.2082532901411955e+01 -4 -3 0
3772 444 2 -8.2999999999999996e-01 8.2040516786033297e+00 1.3210012772106465e+00 2.3581326412893461e+01 -4 3 0
5983 444 2 -8.2999999999999996e-01 1.0662614468901829e+01 2.8661464659013363e+00 2.0314668447794354e+01 -5 -2 0
4205 444 1 4.1499999999999998e-01 1.0570820953203983e+01 7.1672551096216850e+00 2.1615877894095743e+01 6 1 0
3498 444 1 4.1499999999999998e-01 4.2663095992817350e+00 6.7859682903927698e+00 2.0369559180759275e+01 -2 4 0
3497 444 1 4.1499999999999998e-01 5.5286809496411085e+00 6.2213572448271162e+00 2.0985617924994639e+01 -2 4 0
4875 444 1 4.1499999999999998e-01 8.2261852477291342e+00 5.8643401177829277e+00 1.8796819420820601e+01 -1 -3 0
607 444 2 -8.2999999999999996e-01 1.1470024048248610e+00 7.2482424086159689e+00 1.7082843160616950e+01 1 1 0
4873 444 2 -8.2999999999999996e-01 8.3423025356294005e+00 6.3063212435242324e+00 1.7955747871057522e+01 -1 -3 0
4036 444 2 -8.2999999999999996e-01 6.5028528439243223e+00 2.7574881335654831e+00 2.2052673802704490e+01 1 -1 0
1182 444 1 4.1499999999999998e-01 5.0513146431882570e+00 1.5569102655317384e+00 1.7401790292667080e+01 0 -2 0
1180 444 2 -8.2999999999999996e-01 4.9796969114347105e+00 1.4017202833579789e+00 1.6459973462220187e+01 0 -2 0
3750 444 1 4.1499999999999998e-01 6.9872613915084658e+00 6.4770877233980571e+00 1.6276484581435568e+01 -4 0 0
875 444 1 4.1499999999999998e-01 4.0273736853056086e+00 1.2628773801363695e+00 2.3455746981182280e+01 -3 2 0
1669 444 2 -8.2999999999999996e-01 8.3633900031569137e+00 2.1849711226315920e+00 1.6349072209682454e+01 -2 0 0
4037 444 1 4.1499999999999998e-01 7.0048004264582335e+00 2.0610755272539634e+00 2.2476100975056013e+01 1 -1 0
2137 444 2 -8.2999999999999996e-01 6.8378110345422174e+00 3.9803004891772580e+00 1.7401761639249202e+01 2 -1 0
2139 444 1 4.1499999999999998e-01 7.2455302253408371e+00 4.6706820821755901e+00 1.7924610331698062e+01 2 -1 0
2138 444 1 4.1499999999999998e-01 6.1377978772858413e+00 4.4237988315486083e+00 1.6922675702723428e+01 2 -1 0
4379 444 1 4.1499999999999998e-01 2.1008461170007720e+00 5.6120566226191224e+00 1.9517117258969641e+01 1 2 0
506 444 1 4.1499999999999998e-01 2.3790196239192301e+00 3.1646149768109981e+00 2.0771020474875858e+01 3 7 0
4251 444 1 4.1499999999999998e-01 7.6004873980730290e+00 4.6542150803541489e+00 2.0229317613832478e+01 -2 3 0
4378 444 2 -8.2999999999999996e-01 2.8987112934672719e+00 5.9754123847624561e+00 1.9132908581089485e+01 1 2 0
3068 444 1 4.1499999999999998e-01 5.3796824144370641e+00 3.9274724578708353e+00 1.9364342985611724e+01 -1 6 0
505 444 2 -8.2999999999999996e-01 3.2640310709740521e+00 3.1300724561607658e+00 2.1134055084620961e+01 3 7 0
3069 444 1 4.1499999999999998e-01 5.8963346729870105e+00 3.8900323228497413e+00 2.0786863242516674e+01 -1 6 0
3067 444 2 -8.2999999999999996e-01 5.7777237737335820e+00 4.4766046743336307e+00 2.0039804860316476e+01 -1 6 0
4038 444 1 4.1499999999999998e-01 6.3005243337641348e+00 3.3709791583832764e+00 2.2759019813715778e+01 1 -1 0
1670 444 1 4.1499999999999998e-01 7.7613143474921857e+00 2.8101909769415760e+00 1.6752602835477603e+01 -2 0 0
507 444 1 4.1499999999999998e-01 3.4019718703674129e+00 3.9981165824221154e+00 2.1513138607289250e+01 3 7 0
1172 444 1 4.1499999999999998e-01 8.1511173052809160e-01 2.1843453475840522e+00 1.9027852586220146e+01 -1 2 0
3774 444 1 4.1499999999999998e-01 8.2813297993321822e+00 6.4513439080180068e-01 2.2907929072104945e+01 -4 3 0
608 444 1 4.1499999999999998e-01 7.6417322731365356e-01 7.5752331839914167e+00 1.7896938271050974e+01 1 1 0
2955 444 1 4.1499999999999998e-01 3.7083574628445812e+00 1.3352097503281850e+00 2.0439549094173742e+01 3 -2 0
3777 444 1 4.1499999999999998e-01 9.4942210761440275e+00 1.5566512559998429e+00 1.7698687208888057e+01 3 -4 0
4249 444 2 -8.2999999999999996e-01 8.4504168738328094e+00 5.0851724731933734e+00 2.0139160752976785e+01 -2 3 0
4250 444 1 4.1499999999999998e-01 9.0847447932123160e+00 4.4262428868292414e+00 2.0421423205564679e+01 -2 3 0
3496 444 2 -8.2999999999999996e-01 5.0193651725782233e+00 7.0281333620501210e+00 2.0908535388381075e+01 -2 4 0
5984 444 1 4.1499999999999998e-01 1.0536547402551287e+01 3.3903140302541726e+00 1.9523727328153729e+01 -5 -2 0
1181 444 1 4.1499999999999998e-01 5.7011539832687745e+00 8.0546196925418445e-01 1.6259455131395086e+01 0 -2 0
2954 444 1 4.1499999999999998e-01 4.0183067323219896e+00 8.8584298510348741e-02 2.1240643292666032e+01 3 -2 0
5985 444 1 4.1499999999999998e-01 1.0512592798636033e+01 1.9642413948538948e+00 2.0031308133683961e+01 -5 -2 0
1173 444 1 4.1499999999999998e-01 1.3251225154635022e+00 3.1621378372618558e+00 1.7990689917836335e+01 -1 2 0
1514 444 1 4.1499999999999998e-01 7.6824446173791854e+00 7.2414856805139005e-01 1.6315196745331040e+01 1 0 0
1366 444 2 -8.2999999999999996e-01 5.7205552480363087e-01 5.1556925792948487e+00 2.0579110278814696e+01 -3 1 0
874 444 2 -8.2999999999999996e-01 4.1823406616528604e+00 4.3731429216081091e-01 2.2996765999096404e+01 -3 2 0
3941 444 1 4.1499999999999998e-01 9.4788984338589035e+00 2.5739416891500175e+00 2.4354874390511995e+01 0 0 0
4874 444 1 4.1499999999999998e-01 9.0811381111371663e+00 6.8985442891460131e+00 1.8095839712793239e+01 -1 -3 0
5401 444 2 -8.2999999999999996e-01 7.1778728104785028e+00 7.1053020260247051e+00 2.3532325260054723e+01 -3 4 0
1171 444 2 -8.2999999999999996e-01 1.1510852164968832e+00 3.0750549178913000e+00 1.8927898507008802e+01 -1 2 0
1233 444 1 4.1499999999999998e-01 8.7656941489605735e+00 6.4904831854743197e+00 2.0871609573542489e+01 -8 2 0
2953 444 2 -8.2999999999999996e-01 3.8115524961180460e+00 3.8734517632581233e-01 2.0355077563268605e+01 3 -2 0
3116 444 1 4.1499999999999998e-01 3.2336665974366419e+00 2.9370463777199078e+00 2.3106130343927532e+01 6 2 0
2870 444 1 4.1499999999999998e-01 5.9417215000305426e+00 5.7011002940634450e+00 2.3217969752734106e+01 0 2 0
3115 444 2 -8.2999999999999996e-01 3.5897702546300638e+00 2.9983982171376002e+00 2.3992503943222484e+01 6 2 0
2869 444 2 -8.2999999999999996e-01 5.5278291323861213e+00 4.9224960740307990e+00 2.3590394917750064e+01 0 2 0
3117 444 1 4.1499999999999998e-01 4.2585662969905425e+00 3.6808362235401582e+00 2.3935740348156482e+01 6 2 0
4832 444 1 4.1499999999999998e-01 1.2463295614623131e+00 6.9699954690458608e+00 2.4281267537823748e+01 -4 -1 0
4380 444 1 4.1499999999999998e-01 2.6163669302071502e+00 6.3412146324013561e+00 1.8294635034881381e+01 1 2 0
1231 444 2 -8.2999999999999996e-01 8.6880254188324280e+00 7.2328255159211841e+00 2.1470882088047890e+01 -8 2 0
5403 444 1 4.1499999999999998e-01 7.5869742620821770e+00 7.1660391608857399e+00 2.2669086930975141e+01 -3 4 0
609 444 1 4.1499999999999998e-01 3.9569526402510602e-01 6.9694634709637295e+00 1.6559342216174301e+01 1 1 0
1965 444 1 4.1499999999999998e-01 2.2907548198856018e+00 7.5864519142828915e+00 1.9976145643342665e+01 1 -2 0
5402 444 1 4.1499999999999998e-01 6.5155641386877345e+00 7.7963735138266301e+00 2.3533179550782755e+01 -3 4 0
1525 444 2 -8.2999999999999996e-01 1.1064337749123354e+01 6.1047578658806421e+00 3.0767230162187669e+01 -3 3 0
1135 444 2 -8.2999999999999996e-01 7.0534431568069769e+00 1.4540739460204447e-01 2.9599841116748209e+01 -2 3 0
2243 444 1 4.1499999999999998e-01 8.5778956172478669e+00 1.2271648386060037e+00 2.9166328600057820e+01 -3 0 0
933 444 1 4.1499999999999998e-01 4.6209646850073289e+00 1.0896910433087332e+00 3.1854025493146867e+01 1 -2 0
1136 444 1 4.1499999999999998e-01 6.1141928555411331e+00 3.2971993798546878e-01 2.9591488116482843e+01 -2 3 0
3814 444 2 -8.2999999999999996e-01 1.1191118343706599e+01 1.3646145716512199e+00 2.6672730713631825e+01 -3 -1 0
175 444 2 -8.2999999999999996e-01 8.4672508532048205e+00 4.4245055889102529e+00 3.1636537904675905e+01 1 -2 0
4833 444 1 4.1499999999999998e-01 1.9907561063456464e-01 7.0911110367386154e+00 2.5367769029620348e+01 -4 -1 0
931 444 2 -8.2999999999999996e-01 3.8419706226196841e+00 1.0164624052146869e+00 3.1302629343259653e+01 1 -2 0
1645 444 2 -8.2999999999999996e-01 9.1969133446210911e+00 7.4891607428662006e+00 2.9340349064297715e+01 0 -1 0
9 444 1 4.1499999999999998e-01 4.9631249247632008e+00 4.1780964579196942e+00 3.2443934717922204e+01 -3 0 0
8 444 1 4.1499999999999998e-01 5.2785759067276654e+00 5.6332660304924396e+00 3.2170314771711730e+01 -3 0 0
3773 444 1 4.1499999999999998e-01 8.1941368977111253e+00 8.3700595601582151e-01 2.4407088198556757e+01 -4 3 0
3940 444 2 -8.2999999999999996e-01 1.0392873356175324e+01 2.8549273482122186e+00 2.4398797494722171e+01 0 0 0
5999 444 1 4.1499999999999998e-01 1.1054570579719552e+01 5.4541273849470739e+00 2.7324014475207040e+01 5 1 0
4665 444 1 4.1499999999999998e-01 1.4396876361817299e+00 2.2986842487564543e+00 2.6449857967118906e+01 -3 2 0
177 444 1 4.1499999999999998e-01 7.9196561457512908e+00 5.1433221437435668e+00 3.1320823271504349e+01 1 -2 0
932 444 1 4.1499999999999998e-01 3.1111241293143101e+00 1.0011037070947433e+00 3.1920577165357617e+01 1 -2 0
5126 444 1 4.1499999999999998e-01 3.2661827514608950e+00 2.2009223545750798e+00 2.9983004820237632e+01 0 2 0
1527 444 1 4.1499999999999998e-01 1.0526853135479799e+01 6.5136640889975279e+00 3.0088895528804510e+01 -3 3 0
3182 444 1 4.1499999999999998e-01 7.8894544860193374e+00 6.3272161788855454e+00 2.4824523614443283e+01 3 1 0
4663 444 2 -8.2999999999999996e-01 2.3427886464816257e+00 2.0233681113767772e+00 2.6607471685693898e+01 -3 2 0
3815 444 1 4.1499999999999998e-01 1.0671501955866795e+01 1.2071803058373236e+00 2.7461048950284368e+01 -3 -1 0
4664 444 1 4.1499999999999998e-01 2.8617205115756543e+00 2.5367458450601705e+00 2.5988290414480069e+01 -3 2 0
4041 444 1 4.1499999999999998e-01 1.0423166414440074e+01 2.5105730694666266e+00 2.9795675246370315e+01 -1 2 0
4040 444 1 4.1499999999999998e-01 9.8948785721423302e+00 3.0397031621987445e+00 3.1112044729477194e+01 -1 2 0
3181 444 2 -8.2999999999999996e-01 8.1816583334036537e+00 5.8365936601430128e+00 2.5592729179982143e+01 3 1 0
14 444 1 4.1499999999999998e-01 2.7742731913602552e+00 7.2463574513630622e+00 2.8581630090598964e+01 0 0 0
15 444 1 4.1499999999999998e-01 2.2008775503644116e+00 5.8576892468276371e+00 2.8767946517870840e+01 0 0 0
3183 444 1 4.1499999999999998e-01 9.0745483013006680e+00 6.1442830098203274e+00 2.5748636475090141e+01 3 1 0
1125 444 1 4.1499999999999998e-01 6.5094992268434693e-01 5.0028544842111549e+00 3.1107643832412446e+01 0 -1 0
2242 444 2 -8.2999999999999996e-01 9.1884208288743032e+00 1.6563157988142672e+00 2.8566895254110094e+01 -3 0 0
2244 444 1 4.1499999999999998e-01 8.6399098494651252e+00 2.2402342158144783e+00 2.8043056636409339e+01 -3 0 0
5427 444 1 4.1499999999999998e-01 6.6208500410906037e+00 3.8412891472791464e+00 2.8014205577560965e+01 0 3 0
2117 444 1 4.1499999999999998e-01 6.0792920773975858e+00 6.0118533948369945e+00 2.6297087390399753e+01 0 2 0
2236 444 2 -8.2999999999999996e-01 6.4121294725075249e+00 7.0134238231271189e+00 2.9462767559792962e+01 -4 6 0
4693 444 2 -8.2999999999999996e-01 5.2249693465405374e+00 4.5586208784343292e+00 2.8940237120085943e+01 4 0 0
4694 444 1 4.1499999999999998e-01 5.3118658525311293e+00 4.4817058855834686e+00 2.9890376614454944e+01 4 0 0
2828 444 1 4.1499999999999998e-01 2.5180280660153254e+00 6.6748750026143853e+00 2.6412408193835905e+01 -4 0 0
5426 444 1 4.1499999999999998e-01 7.3329753563726419e+00 3.9660591098494984e+00 2.6684090632043407e+01 0 3 0
2871 444 1 4.1499999999999998e-01 5.5010962051557941e+00 5.0920975728092941e+00 2.4532070313935819e+01 0 2 0
2827 444 2 -8.2999999999999996e-01 2.7539425705057248e+00 6.9547630444730135e+00 2.5527965443877072e+01 -4 0 0
2829 444 1 4.1499999999999998e-01 3.4837867236347173e+00 6.3859823782163865e+00 2.5282918661053735e+01 -4 0 0
1646 444 1 4.1499999999999998e-01 8.2771890782401112e+00 7.2373261914299114e+00 2.9257171452946146e+01 0 -1 0
5297 444 1 4.1499999999999998e-01 2.9237989484340292e+00 5.0214473704254390e+00 3.1217421780184797e+01 -1 5 0
5296 444 2 -8.2999999999999996e-01 2.2114988308621593e+00 4.9586911625012373e+00 3.0581086827016822e+01 -1 5 0
2116 444 2 -8.2999999999999996e-01 5.2407272550489941e+00 5.5564987584417898e+00 2.6221628105186362e+01 0 2 0
5298 444 1 4.1499999999999998e-01 2.4737833847205133e+00 4.2474556512373782e+00 2.9996635964895784e+01 -1 5 0
6000 444 1 4.1499999999999998e-01 1.0855393333915989e+01 5.0232359504832456e+00 2.5886462271330270e+01 5 1 0
5127 444 1 4.1499999999999998e-01 2.6001946492610659e+00 2.3853474322712427e+00 2.8636029288967517e+01 0 2 0
4695 444 1 4.1499999999999998e-01 4.5265257798687131e+00 3.9449277032444940e+00 2.8712664588407751e+01 4 0 0
2118 444 1 4.1499999999999998e-01 4.9001381123204482e+00 5.5310577368579539e+00 2.7115822677845451e+01 0 2 0
5425 444 2 -8.2999999999999996e-01 7.2380599148850822e+00 3.3872323646702815e+00 2.7440518279794620e+01 0 3 0
13 444 2 -8.2999999999999996e-01 2.5994830521124794e+00 6.4304009165938014e+00 2.8112699730857180e+01 0 0 0
2237 444 1 4.1499999999999998e-01 5.9409581722105278e+00 6.2709758595245439e+00 2.9084613152414668e+01 -4 6 0
4039 444 2 -8.2999999999999996e-01 1.0708070358632677e+01 2.8490275683463109e+00 3.0644504227138800e+01 -1 2 0
5125 444 2 -8.2999999999999996e-01 3.1532306407214352e+00 2.8350232994642188e+00 2.9274915195539812e+01 0 2 0
7 444 2 -8.2999999999999996e-01 4.7821615592089559e+00 4.8892626900381480e+00 3.1829339789423891e+01 -3 0 0
5998 444 2 -8.2999999999999996e-01 1.0825569412791708e+01 5.7907174205297665e+00 2.6457701838843693e+01 5 1 0
5422 444 2 -8.2999999999999996e-01 7.3696193780659662e+00 7.0144868434848435e+00 3.1926991799561829e+01 2 2 0
4831 444 2 -8.2999999999999996e-01 2.9966127403986753e-01 6.9774973389314843e+00 2.4422672955447609e+01 -4 -1 0
2238 444 1 4.1499999999999998e-01 6.0893308644862190e+00 7.7739064405327651e+00 2.8979341348508385e+01 -4 6 0
5423 444 1 4.1499999999999998e-01 6.8317821327928199e+00 7.2601995862910824e+00 3.1174270482897338e+01 2 2 0
3942 444 1 4.1499999999999998e-01 1.0705341897719569e+01 2.5244243406596265e+00 2.5241035089501874e+01 0 0 0
176 444 1 4.1499999999999998e-01 9.3640732606047905e+00 4.7159857601607253e+00 3.1472276625781287e+01 1 -2 0
153 444 1 4.1499999999999998e-01 1.0824855697461853e+01 7.4700020742334754e+00 2.6914792779197469e+01 1 7 0
1274 444 1 4.1499999999999998e-01 1.4881449110603033e+00 7.0300815715275200e-01 2.5675534179541668e+01 -3 2 0
4104 444 1 4.1499999999999998e-01 1.0766772550264379e+01 2.2905156504815383e-01 2.5171288501000731e+01 0 2 0
2702 444 1 4.1499999999999998e-01 1.6935935722045770e-02 2.3126812176986817e+00 2.4610863760594590e+01 4 3 0
620 444 1 4.1499999999999998e-01 8.6366462682205880e-01 7.7861715622844541e+00 3.0950517331145569e+01 3 3 0
4884 444 1 4.1499999999999998e-01 5.0080897910568627e+00 7.3451145159862472e+00 3.4500319136422540e+01 -2 6 0
20 444 1 4.1499999999999998e-01 1.4922522406692371e+00 7.5040386969281050e+00 3.4778199986943683e+01 -1 -2 0