LAMMPS data file via write_data, version 11 Aug 2017, timestep = 500000

7170 atoms
4 atom types
4000 bonds
1 bond types
2000 angles
1 angle types

0.0000000000000000e+00 4.5679949999999998e+01 xlo xhi
0.0000000000000000e+00 4.6885919999999999e+01 ylo yhi
0.0000000000000000e+00 6.5000000000000000e+01 zlo zhi

Masses

1 1.0079
2 15.9994
3 22.9898
4 107.868

Bond Coeffs # harmonic

1 450 0.9572

Angle Coeffs # harmonic

1 55 104.52

Atoms # full

6019 444 4 0.0000000000000000e+00 1.6907200000000000e+00 0.0000000000000000e+00 0.0000000000000000e+00 0 0 0
6020 444 4 0.0000000000000000e+00 4.2285000000000004e+00 1.4651900000000000e+00 0.0000000000000000e+00 0 0 0
6021 444 4 -6.2500000000000000e-02 1.6907700000000001e+00 0.0000000000000000e+00 7.1781499999999996e+00 0 0 0
6022 444 4 -6.2500000000000000e-02 4.2285500000000003e+00 1.4651900000000000e+00 7.1781499999999996e+00 0 0 0
6023 444 4 0.0000000000000000e+00 2.5366499999999998e+00 1.4651900000000000e+00 2.3926400000000001e+00 0 0 0
6024 444 4 0.0000000000000000e+00 5.0744199999999999e+00 0.0000000000000000e+00 2.3926400000000001e+00 0 0 0
6025 444 4 0.0000000000000000e+00 8.4509000000000001e-01 1.4651900000000000e+00 4.7824200000000001e+00 0 0 0
6026 444 4 0.0000000000000000e+00 3.3828600000000000e+00 0.0000000000000000e+00 4.7824499999999999e+00 0 0 0
6027 444 4 0.0000000000000000e+00 1.6907200000000000e+00 2.9303699999999999e+00 0.0000000000000000e+00 0 0 0
6028 444 4 0.0000000000000000e+00 4.2285000000000004e+00 4.3955599999999997e+00 0.0000000000000000e+00 0 0 0
6029 444 4 -6.2500000000000000e-02 1.6907700000000001e+00 2.9303699999999999e+00 7.1781899999999998e+00 0 0 0
6030 444 4 -6.2500000000000000e-02 4.2285500000000003e+00 4.3955599999999997e+00 7.1781600000000001e+00 0 0 0
6031 444 4 0.0000000000000000e+00 2.5366499999999998e+00 4.3955599999999997e+00 2.3926400000000001e+00 0 0 0
6032 444 4 0.0000000000000000e+00 5.0744199999999999e+00 2.9303699999999999e+00 2.3926400000000001e+00 0 0 0
6033 444 4 0.0000000000000000e+00 8.4509000000000001e-01 4.3955599999999997e+00 4.7824499999999999e+00 0 0 0
6034 444 4 0.0000000000000000e+00 3.3828700000000000e+00 2.9303699999999999e+00 4.7824400000000002e+00 0 0 0
6035 444 4 0.0000000000000000e+00 1.6907200000000000e+00 5.8607399999999998e+00 0.0000000000000000e+00 0 0 0
6036 444 4 0.0000000000000000e+00 4.2285000000000004e+00 7.3259299999999996e+00 0.0000000000000000e+00 0 0 0
6037 444 4 -6.2500000000000000e-02 1.6907700000000001e+00 5.8607399999999998e+00 7.1781499999999996e+00 0 0 0
6038 444 4 -6.2500000000000000e-02 4.2285500000000003e+00 7.3259299999999996e+00 7.1781499999999996e+00 0 0 0
6039 444 4 0.0000000000000000e+00 2.5366499999999998e+00 7.3259299999999996e+00 2.3926400000000001e+00 0 0 0
6040 444 4 0.0000000000000000e+00 5.0744199999999999e+00 5.8607399999999998e+00 2.3926400000000001e+00 0 0 0
6041 444 4 0.0000000000000000e+00 8.4509000000000001e-01 7.3259299999999996e+00 4.7824200000000001e+00 0 0 0
6042 444 4 0.0000000000000000e+00 3.3828600000000000e+00 5.8607399999999998e+00 4.7824499999999999e+00 0 0 0
6147 444 4 0.0000000000000000e+00 6.7662699999999996e+00 0.0000000000000000e+00 0.0000000000000000e+00 0 0 0
6149 444 4 -6.2500000000000000e-02 6.7663200000000003e+00 0.0000000000000000e+00 7.1781499999999996e+00 0 0 0
6151 444 4 0.0000000000000000e+00 7.6121999999999996e+00 1.4651900000000000e+00 2.3926400000000001e+00 0 0 0
6153 444 4 0.0000000000000000e+00 5.9206399999999997e+00 1.4651900000000000e+00 4.7824200000000001e+00 0 0 0
6155 444 4 0.0000000000000000e+00 6.7662699999999996e+00 2.9303699999999999e+00 0.0000000000000000e+00 0 0 0
6157 444 4 -6.2500000000000000e-02 6.7663200000000003e+00 2.9303699999999999e+00 7.1781899999999998e+00 0 0 0
6159 444 4 0.0000000000000000e+00 7.6121999999999996e+00 4.3955599999999997e+00 2.3926400000000001e+00 0 0 0
6161 444 4 0.0000000000000000e+00 5.9206399999999997e+00 4.3955599999999997e+00 4.7824499999999999e+00 0 0 0
6163 444 4 0.0000000000000000e+00 6.7662699999999996e+00 5.8607399999999998e+00 0.0000000000000000e+00 0 0 0
6165 444 4 -6.2500000000000000e-02 6.7663200000000003e+00 5.8607399999999998e+00 7.1781499999999996e+00 0 0 0
6167 444 4 0.0000000000000000e+00 7.6121999999999996e+00 7.3259299999999996e+00 2.3926400000000001e+00 0 0 0
6169 444 4 0.0000000000000000e+00 5.9206399999999997e+00 7.3259299999999996e+00 4.7824200000000001e+00 0 0 0
6043 444 4 0.0000000000000000e+00 1.6907200000000000e+00 8.7911099999999998e+00 0.0000000000000000e+00 0 0 0
6044 444 4 0.0000000000000000e+00 4.2285000000000004e+00 1.0256300000000000e+01 0.0000000000000000e+00 0 0 0
6045 444 4 -6.2500000000000000e-02 1.6907700000000001e+00 8.7911099999999998e+00 7.1781899999999998e+00 0 0 0
6046 444 4 -6.2500000000000000e-02 4.2285500000000003e+00 1.0256300000000000e+01 7.1781600000000001e+00 0 0 0
6047 444 4 0.0000000000000000e+00 2.5366499999999998e+00 1.0256300000000000e+01 2.3926400000000001e+00 0 0 0
6048 444 4 0.0000000000000000e+00 5.0744199999999999e+00 8.7911099999999998e+00 2.3926400000000001e+00 0 0 0
6049 444 4 0.0000000000000000e+00 8.4509000000000001e-01 1.0256300000000000e+01 4.7824499999999999e+00 0 0 0
6050 444 4 0.0000000000000000e+00 3.3828700000000000e+00 8.7911099999999998e+00 4.7824400000000002e+00 0 0 0
6171 444 4 0.0000000000000000e+00 6.7662699999999996e+00 8.7911099999999998e+00 0.0000000000000000e+00 0 0 0
6173 444 4 -6.2500000000000000e-02 6.7663200000000003e+00 8.7911099999999998e+00 7.1781899999999998e+00 0 0 0
6175 444 4 0.0000000000000000e+00 7.6121999999999996e+00 1.0256300000000000e+01 2.3926400000000001e+00 0 0 0
6177 444 4 0.0000000000000000e+00 5.9206399999999997e+00 1.0256300000000000e+01 4.7824499999999999e+00 0 0 0
6148 444 4 0.0000000000000000e+00 9.3040500000000002e+00 1.4651900000000000e+00 0.0000000000000000e+00 0 0 0
6150 444 4 -6.2500000000000000e-02 9.3041000000000000e+00 1.4651900000000000e+00 7.1781499999999996e+00 0 0 0
6152 444 4 0.0000000000000000e+00 1.0149970000000000e+01 0.0000000000000000e+00 2.3926400000000001e+00 0 0 0
6154 444 4 0.0000000000000000e+00 8.4584100000000007e+00 0.0000000000000000e+00 4.7824499999999999e+00 0 0 0
6156 444 4 0.0000000000000000e+00 9.3040500000000002e+00 4.3955599999999997e+00 0.0000000000000000e+00 0 0 0
6158 444 4 -6.2500000000000000e-02 9.3041000000000000e+00 4.3955599999999997e+00 7.1781600000000001e+00 0 0 0
6160 444 4 0.0000000000000000e+00 1.0149970000000000e+01 2.9303699999999999e+00 2.3926400000000001e+00 0 0 0
6162 444 4 0.0000000000000000e+00 8.4584200000000003e+00 2.9303699999999999e+00 4.7824400000000002e+00 0 0 0
6164 444 4 0.0000000000000000e+00 9.3040500000000002e+00 7.3259299999999996e+00 0.0000000000000000e+00 0 0 0
6166 444 4 -6.2500000000000000e-02 9.3041000000000000e+00 7.3259299999999996e+00 7.1781499999999996e+00 0 0 0
6168 444 4 0.0000000000000000e+00 1.0149970000000000e+01 5.8607399999999998e+00 2.3926400000000001e+00 0 0 0
6170 444 4 0.0000000000000000e+00 8.4584100000000007e+00 5.8607399999999998e+00 4.7824499999999999e+00 0 0 0
6281 444 4 0.0000000000000000e+00 1.0996190000000000e+01 1.4651900000000000e+00 4.7824200000000001e+00 0 0 0
6289 444 4 0.0000000000000000e+00 1.0996190000000000e+01 4.3955599999999997e+00 4.7824499999999999e+00 0 0 0
6297 444 4 0.0000000000000000e+00 1.0996190000000000e+01 7.3259299999999996e+00 4.7824200000000001e+00 0 0 0
6275 444 4 0.0000000000000000e+00 1.1841820000000000e+01 0.0000000000000000e+00 0.0000000000000000e+00 0 0 0
6276 444 4 0.0000000000000000e+00 1.4379600000000000e+01 1.4651900000000000e+00 0.0000000000000000e+00 0 0 0
6277 444 4 -6.2500000000000000e-02 1.1841870000000000e+01 0.0000000000000000e+00 7.1781499999999996e+00 0 0 0
6278 444 4 -6.2500000000000000e-02 1.4379650000000000e+01 1.4651900000000000e+00 7.1781499999999996e+00 0 0 0
6279 444 4 0.0000000000000000e+00 1.2687749999999999e+01 1.4651900000000000e+00 2.3926400000000001e+00 0 0 0
6280 444 4 0.0000000000000000e+00 1.5225519999999999e+01 0.0000000000000000e+00 2.3926400000000001e+00 0 0 0
6282 444 4 0.0000000000000000e+00 1.3533960000000000e+01 0.0000000000000000e+00 4.7824499999999999e+00 0 0 0
6283 444 4 0.0000000000000000e+00 1.1841820000000000e+01 2.9303699999999999e+00 0.0000000000000000e+00 0 0 0
6284 444 4 0.0000000000000000e+00 1.4379600000000000e+01 4.3955599999999997e+00 0.0000000000000000e+00 0 0 0
6285 444 4 -6.2500000000000000e-02 1.1841870000000000e+01 2.9303699999999999e+00 7.1781899999999998e+00 0 0 0
6286 444 4 -6.2500000000000000e-02 1.4379650000000000e+01 4.3955599999999997e+00 7.1781600000000001e+00 0 0 0
6287 444 4 0.0000000000000000e+00 1.2687749999999999e+01 4.3955599999999997e+00 2.3926400000000001e+00 0 0 0
6288 444 4 0.0000000000000000e+00 1.5225519999999999e+01 2.9303699999999999e+00 2.3926400000000001e+00 0 0 0
6290 444 4 0.0000000000000000e+00 1.3533970000000000e+01 2.9303699999999999e+00 4.7824400000000002e+00 0 0 0
6291 444 4 0.0000000000000000e+00 1.1841820000000000e+01 5.8607399999999998e+00 0.0000000000000000e+00 0 0 0
6292 444 4 0.0000000000000000e+00 1.4379600000000000e+01 7.3259299999999996e+00 0.0000000000000000e+00 0 0 0
6293 444 4 -6.2500000000000000e-02 1.1841870000000000e+01 5.8607399999999998e+00 7.1781499999999996e+00 0 0 0
6294 444 4 -6.2500000000000000e-02 1.4379650000000000e+01 7.3259299999999996e+00 7.1781499999999996e+00 0 0 0
6295 444 4 0.0000000000000000e+00 1.2687749999999999e+01 7.3259299999999996e+00 2.3926400000000001e+00 0 0 0
6296 444 4 0.0000000000000000e+00 1.5225519999999999e+01 5.8607399999999998e+00 2.3926400000000001e+00 0 0 0
6298 444 4 0.0000000000000000e+00 1.3533960000000000e+01 5.8607399999999998e+00 4.7824499999999999e+00 0 0 0
6172 444 4 0.0000000000000000e+00 9.3040500000000002e+00 1.0256300000000000e+01 0.0000000000000000e+00 0 0 0
6174 444 4 -6.2500000000000000e-02 9.3041000000000000e+00 1.0256300000000000e+01 7.1781600000000001e+00 0 0 0
6176 444 4 0.0000000000000000e+00 1.0149970000000000e+01 8.7911099999999998e+00 2.3926400000000001e+00 0 0 0
6178 444 4 0.0000000000000000e+00 8.4584200000000003e+00 8.7911099999999998e+00 4.7824400000000002e+00 0 0 0
6305 444 4 0.0000000000000000e+00 1.0996190000000000e+01 1.0256300000000000e+01 4.7824499999999999e+00 0 0 0
6299 444 4 0.0000000000000000e+00 1.1841820000000000e+01 8.7911099999999998e+00 0.0000000000000000e+00 0 0 0
6300 444 4 0.0000000000000000e+00 1.4379600000000000e+01 1.0256300000000000e+01 0.0000000000000000e+00 0 0 0
6301 444 4 -6.2500000000000000e-02 1.1841870000000000e+01 8.7911099999999998e+00 7.1781899999999998e+00 0 0 0
6302 444 4 -6.2500000000000000e-02 1.4379650000000000e+01 1.0256300000000000e+01 7.1781600000000001e+00 0 0 0
6303 444 4 0.0000000000000000e+00 1.2687749999999999e+01 1.0256300000000000e+01 2.3926400000000001e+00 0 0 0
6304 444 4 0.0000000000000000e+00 1.5225519999999999e+01 8.7911099999999998e+00 2.3926400000000001e+00 0 0 0
6306 444 4 0.0000000000000000e+00 1.3533970000000000e+01 8.7911099999999998e+00 4.7824400000000002e+00 0 0 0
2586 444 1 4.1499999999999998e-01 3.4072976153300720e+00 8.4387593307349515e+00 1.0263777353822658e+01 2 -1 0
5972 444 1 4.1499999999999998e-01 5.7196279189306871e+00 3.9619508854417731e+00 1.1208887684224301e+01 -1 3 0
5971 444 2 -8.2999999999999996e-01 5.6193405598073536e+00 4.8784019516688710e+00 1.0951414391429569e+01 -1 3 0
2423 444 1 4.1499999999999998e-01 2.5576461402274573e+00 2.5109976842522399e+00 1.1950090433554928e+01 -1 2 0
2424 444 1 4.1499999999999998e-01 2.3763652848721262e+00 3.4467082672043698e+00 1.0773876716142247e+01 -1 2 0
2422 444 2 -8.2999999999999996e-01 2.0664730131490501e+00 2.6163003841981136e+00 1.1135294436320841e+01 -1 2 0
3961 444 2 -8.2999999999999996e-01 5.7659279540691086e+00 7.0179473113790216e+00 1.3770151315371434e+01 1 0 0
3659 444 1 4.1499999999999998e-01 2.8645904049783120e+00 3.0381726250985368e+00 1.4588323113319811e+01 -1 1 0
5973 444 1 4.1499999999999998e-01 4.6726698237218169e+00 5.0150894585211221e+00 1.0914484549079804e+01 -1 3 0
3962 444 1 4.1499999999999998e-01 6.2568684749008110e+00 6.2014088742460691e+00 1.3678094420840175e+01 1 0 0
1247 444 1 4.1499999999999998e-01 4.6826068498817817e+00 2.6737208009552065e+00 1.2773288292472996e+01 1 4 0
2584 444 2 -8.2999999999999996e-01 4.2270237912038686e+00 8.9274642896079310e+00 1.0337592659467067e+01 2 -1 0
2585 444 1 4.1499999999999998e-01 4.9071620659834077e+00 8.2891552084495768e+00 1.0122636403320392e+01 2 -1 0
3628 444 2 -8.2999999999999996e-01 3.0177274716490428e+00 5.0562695131723512e+00 1.0169976837684686e+01 1 3 0
3660 444 1 4.1499999999999998e-01 3.7401259758855634e+00 4.2672950262107623e+00 1.4467530001564654e+01 -1 1 0
3658 444 2 -8.2999999999999996e-01 3.4072825475995066e+00 3.5228038969034055e+00 1.3966350478413746e+01 -1 1 0
3580 444 2 -8.2999999999999996e-01 3.3893916358720402e+00 1.0939361759769264e+01 1.1936745521002603e+01 0 0 0
2388 444 1 4.1499999999999998e-01 4.1786416134336015e+00 7.2648434333230165e+00 1.3296758977217095e+01 -3 0 0
3581 444 1 4.1499999999999998e-01 3.5688359616406959e+00 1.0407619792742238e+01 1.1161321712020829e+01 0 0 0
3169 444 2 -8.2999999999999996e-01 1.5113261866019461e+00 5.9347605102355807e+00 1.4004191727161363e+01 -1 2 0
3895 444 2 -8.2999999999999996e-01 3.2720144225432444e+00 5.6751826570498765e-01 1.0148723537035202e+01 0 2 0
5456 444 1 4.1499999999999998e-01 2.1069808402110728e+00 7.5928011610079462e+00 1.1774957609347963e+01 1 -1 0
3171 444 1 4.1499999999999998e-01 1.8713497547969959e+00 6.5591072241269641e+00 1.3374265808079025e+01 -1 2 0
2386 444 2 -8.2999999999999996e-01 3.3824610826653223e+00 7.6728572911224502e+00 1.2956386877111022e+01 -3 0 0
5315 444 1 4.1499999999999998e-01 2.2328489095015320e+00 9.5418790877894040e+00 1.4895109676838466e+01 1 0 0
5316 444 1 4.1499999999999998e-01 2.8108438796974826e+00 1.0851584397596977e+01 1.5387541429408152e+01 1 0 0
3170 444 1 4.1499999999999998e-01 2.0745133147728159e+00 5.1645948259638015e+00 1.3927397795272814e+01 -1 2 0
3897 444 1 4.1499999999999998e-01 2.8468121202265464e+00 1.3925947306256758e+00 1.0382569001348633e+01 0 2 0
2387 444 1 4.1499999999999998e-01 3.5953974161647655e+00 8.6043689962984260e+00 1.2900031486528313e+01 -3 0 0
5314 444 2 -8.2999999999999996e-01 3.0586704691467119e+00 9.9621246853898384e+00 1.5135201826695143e+01 1 0 0
3630 444 1 4.1499999999999998e-01 2.4782393770032485e+00 5.8353702070303521e+00 1.0304838233465329e+01 1 3 0
3629 444 1 4.1499999999999998e-01 3.2380661104658586e+00 5.0752035256796910e+00 9.2386742780228435e+00 1 3 0
2673 444 1 4.1499999999999998e-01 6.2579668009128699e+00 1.0308210976911138e+01 1.2467388206187238e+01 -2 0 0
2671 444 2 -8.2999999999999996e-01 5.8171632698047748e+00 1.0737426553244902e+01 1.3200667229282995e+01 -2 0 0
267 444 1 4.1499999999999998e-01 9.8296038951559217e-01 1.0298097943141125e+01 9.4736820773358392e+00 0 -1 0
5054 444 1 4.1499999999999998e-01 6.0229535726508363e+00 1.9222792252423995e+00 1.5401677839434331e+01 1 -3 0
5455 444 2 -8.2999999999999996e-01 1.7251337442618222e+00 7.4108201029880787e+00 1.0916291061678239e+01 1 -1 0
2672 444 1 4.1499999999999998e-01 6.1506646628583406e+00 1.1634577114267216e+01 1.3189284558367849e+01 -2 0 0
265 444 2 -8.2999999999999996e-01 5.3507338743901500e-01 9.8022123016024434e+00 1.0159048135747618e+01 0 -1 0
3887 444 1 4.1499999999999998e-01 5.6229123054949532e+00 1.0181812316456085e+01 1.0015854521383126e+01 -2 2 0
3963 444 1 4.1499999999999998e-01 6.4101509986269507e+00 7.6508452047771449e+00 1.4087403715576160e+01 1 0 0
5119 444 2 -8.2999999999999996e-01 5.7879295060158753e-01 9.4657592157749537e-01 1.3475504964408032e+01 2 -1 0
1761 444 1 4.1499999999999998e-01 7.0390939608999368e+00 8.6074149089383383e+00 1.6074526342288301e+01 3 0 0
747 444 1 4.1499999999999998e-01 1.2471569997529719e+00 5.9857156894151791e+00 1.5829747186982942e+01 2 -2 0
3582 444 1 4.1499999999999998e-01 4.1694431559461904e+00 1.0838980894040859e+01 1.2482341695109167e+01 0 0 0
5053 444 2 -8.2999999999999996e-01 5.3266702688299326e+00 1.4138896243099042e+00 1.5817564247070301e+01 1 -3 0
5055 444 1 4.1499999999999998e-01 5.0669534752748193e+00 7.7485693134810929e-01 1.5153925590161336e+01 1 -3 0
459 444 1 4.1499999999999998e-01 4.6584428843460550e+00 1.0000506196618876e+01 1.5799374625298080e+01 0 -1 0
457 444 2 -8.2999999999999996e-01 5.5938387642250831e+00 1.0200693832327653e+01 1.5764858344618466e+01 0 -1 0
5457 444 1 4.1499999999999998e-01 1.2765022214253849e+00 8.2216400158872975e+00 1.0676429802902312e+01 1 -1 0
458 444 1 4.1499999999999998e-01 5.7879338564662985e+00 1.0280239379518514e+01 1.4830924989598721e+01 0 -1 0
5121 444 1 4.1499999999999998e-01 1.8115794115286762e-01 1.0932288799581964e+00 1.2617244397507447e+01 2 -1 0
3896 444 1 4.1499999999999998e-01 2.9960017984909313e+00 4.0237524627167959e-01 9.2471822634434613e+00 0 2 0
1318 444 2 -8.2999999999999996e-01 7.3440465053401187e+00 2.7128522423092241e+00 1.4487902580105615e+01 -1 0 0
636 444 1 4.1499999999999998e-01 5.9108151698921745e+00 6.5398108706724889e+00 1.0338438296089905e+01 1 4 0
1248 444 1 4.1499999999999998e-01 6.1894687110451905e+00 2.5285954990733850e+00 1.2759088289714514e+01 1 4 0
1246 444 2 -8.2999999999999996e-01 5.4098065975564520e+00 2.3818936650403808e+00 1.2223515320001601e+01 1 4 0
465 444 1 4.1499999999999998e-01 7.0406910125413074e+00 8.4414536858337339e+00 1.0938245702828420e+01 0 0 0
463 444 2 -8.2999999999999996e-01 7.2395274714155029e+00 9.2353939666142146e+00 1.1434587146023476e+01 0 0 0
634 444 2 -8.2999999999999996e-01 6.4820434233936712e+00 7.2656016587935746e+00 1.0087123379190130e+01 1 4 0
635 444 1 4.1499999999999998e-01 6.7620334895643008e+00 7.0534263139476980e+00 9.1967193296410841e+00 1 4 0
464 444 1 4.1499999999999998e-01 7.2427910098430699e+00 9.9333918564722925e+00 1.0779590840200077e+01 0 0 0
5120 444 1 4.1499999999999998e-01 1.3002324026765884e+00 3.4091219653844373e-01 1.3305421108580646e+01 2 -1 0
5300 444 1 4.1499999999999998e-01 5.5260305236294560e-01 2.2821576397352783e+00 1.4620992125711526e+01 -3 0 0
1320 444 1 4.1499999999999998e-01 7.5142274217572229e+00 3.6541559901264224e+00 1.4452999703955564e+01 -1 0 0
3598 444 2 -8.2999999999999996e-01 4.7151377139609778e+00 5.3021452770571722e+00 1.5861721103994643e+01 0 -3 0
3600 444 1 4.1499999999999998e-01 5.2704834646117584e+00 5.9742921751093387e+00 1.5466700038659406e+01 0 -3 0
266 444 1 4.1499999999999998e-01 6.7448314499052908e-01 1.0314157834199204e+01 1.0955734494546812e+01 0 -1 0
5237 444 1 4.1499999999999998e-01 1.7937921649436921e+00 1.1489636335874870e+01 1.2231773698301685e+01 0 0 0
5299 444 2 -8.2999999999999996e-01 6.2458777022817646e-01 3.1606324573216020e+00 1.4994264388245020e+01 -3 0 0
3888 444 1 4.1499999999999998e-01 5.3127229042744535e+00 1.1476738729955494e+01 9.2955466833649094e+00 -2 2 0
3886 444 2 -8.2999999999999996e-01 5.9203311198318689e+00 1.1087000664200577e+01 9.9241553448873017e+00 -2 2 0
3882 444 1 4.1499999999999998e-01 5.3179279434375271e-01 2.6733059330669233e+00 1.0598630898788274e+01 2 1 0
3191 444 1 4.1499999999999998e-01 5.9110797343219854e+00 7.8456727404747739e-01 1.1416619413520749e+01 0 -1 0
5236 444 2 -8.2999999999999996e-01 8.5839574470157132e-01 1.1662741993428916e+01 1.2125473011297041e+01 0 0 0
5145 444 1 4.1499999999999998e-01 8.9049360928931606e-03 5.2861982199732767e+00 1.3294255364466194e+01 3 -3 0
5301 444 1 4.1499999999999998e-01 2.7557918707457119e-01 3.7389164768125362e+00 1.4316022120002732e+01 -3 0 0
242 444 1 4.1499999999999998e-01 8.1562044200445723e-03 6.0307522871717811e+00 1.0004892102864368e+01 -1 3 0
2462 444 1 4.1499999999999998e-01 3.0085539669540844e+00 5.8404372872212285e-02 1.1832514755762325e+01 1 3 0
405 444 1 4.1499999999999998e-01 8.9424218570428184e+00 1.6652172410035984e+00 1.0411243246016717e+01 3 1 0
403 444 2 -8.2999999999999996e-01 9.0084241856778764e+00 2.6196062989132125e+00 1.0443142202754959e+01 3 1 0
404 444 1 4.1499999999999998e-01 8.4145107431048913e+00 2.9243030944322839e+00 9.7570964533945226e+00 3 1 0
1319 444 1 4.1499999999999998e-01 8.2110392047246048e+00 2.3150033882708669e+00 1.4567100477153577e+01 -1 0 0
768 444 1 4.1499999999999998e-01 8.7476391433709342e+00 5.9354899824411351e+00 1.3209037818585534e+01 -2 -2 0
767 444 1 4.1499999999999998e-01 8.4940616505999156e+00 4.6551425957690666e+00 1.2442027700286715e+01 -2 -2 0
766 444 2 -8.2999999999999996e-01 8.3565624324297136e+00 5.0661141970348922e+00 1.3295507973839547e+01 -2 -2 0
2267 444 1 4.1499999999999998e-01 1.0743723246878130e+01 4.3050993355247780e+00 1.4872306586060105e+01 2 1 0
2268 444 1 4.1499999999999998e-01 1.0128600012294340e+01 5.6295493421963103e+00 1.4473118926447302e+01 2 1 0
2266 444 2 -8.2999999999999996e-01 1.0375841978043399e+01 5.1096377519113929e+00 1.5237837975496523e+01 2 1 0
3320 444 1 4.1499999999999998e-01 1.0645536389418961e+01 7.7384197154691021e+00 1.0660954191834938e+01 0 0 0
3319 444 2 -8.2999999999999996e-01 1.0680136491536297e+01 6.8521166414324730e+00 1.0301089795252642e+01 0 0 0
5593 444 2 -8.2999999999999996e-01 1.1506745036079792e+01 3.0899131988237656e+00 1.3760650114130669e+01 -1 -1 0
5594 444 1 4.1499999999999998e-01 1.2297291965389888e+01 2.7865895808674801e+00 1.4207039031945014e+01 -1 -1 0
3321 444 1 4.1499999999999998e-01 1.0364907946617638e+01 6.9456279788310153e+00 9.4021355579528887e+00 0 0 0
1100 444 1 4.1499999999999998e-01 1.0718057983813493e+01 5.2644868938163905e+00 1.1196508295334940e+01 -1 -1 0
1099 444 2 -8.2999999999999996e-01 1.0929709091490571e+01 4.3361825399827287e+00 1.1294931359783700e+01 -1 -1 0
1101 444 1 4.1499999999999998e-01 1.0110280396585555e+01 3.8812759778965598e+00 1.1100434393455908e+01 -1 -1 0
1996 444 2 -8.2999999999999996e-01 1.3694203755979139e+01 6.7465630584129279e+00 1.0160305975977664e+01 4 1 0
1998 444 1 4.1499999999999998e-01 1.2896147677583837e+01 6.7662347064655739e+00 9.6321466878763129e+00 4 1 0
5743 444 2 -8.2999999999999996e-01 1.3007280046586867e+01 8.6393936701529821e+00 1.1633851058711892e+01 1 2 0
1997 444 1 4.1499999999999998e-01 1.3862806150122040e+01 5.8156305097075816e+00 1.0305807101184257e+01 4 1 0
5744 444 1 4.1499999999999998e-01 1.2114860790955463e+01 8.9195424735620694e+00 1.1430537461909980e+01 1 2 0
4093 444 2 -8.2999999999999996e-01 1.3264000837460124e+01 3.4901532791591450e+00 1.0214785427898333e+01 0 -2 0
363 444 1 4.1499999999999998e-01 8.5081925271686316e+00 8.2614808559727493e+00 1.2380225395975588e+01 0 1 0
3746 444 1 4.1499999999999998e-01 1.2767702158949362e+01 6.2309262949730524e+00 1.3514222075937461e+01 4 2 0
3747 444 1 4.1499999999999998e-01 1.3014288312924393e+01 7.6288868929286853e+00 1.2988106728682640e+01 4 2 0
3745 444 2 -8.2999999999999996e-01 1.3114990943998752e+01 7.0855380772666443e+00 1.3769684868102605e+01 4 2 0
5595 444 1 4.1499999999999998e-01 1.1664619507724428e+01 2.8982572345425095e+00 1.2836217437927615e+01 -1 -1 0
5893 444 2 -8.2999999999999996e-01 9.8227102025461921e+00 1.3080754558293273e+00 1.5543890768762836e+01 1 0 0
1254 444 1 4.1499999999999998e-01 1.0955236869112795e+01 9.5014370014325582e+00 9.5882765699886416e+00 -2 -1 0
361 444 2 -8.2999999999999996e-01 8.9595256709207600e+00 7.8306950277956373e+00 1.3106142186744652e+01 0 1 0
4095 444 1 4.1499999999999998e-01 1.3445496323363681e+01 2.8461710668168885e+00 9.5302576460296962e+00 0 -2 0
1252 444 2 -8.2999999999999996e-01 1.0795610894279072e+01 9.4999495910305178e+00 1.0532071684585350e+01 -2 -1 0
362 444 1 4.1499999999999998e-01 8.4415011091658609e+00 8.0565716612928835e+00 1.3878711396315218e+01 0 1 0
5564 444 1 4.1499999999999998e-01 1.0422411804281701e+01 8.9303142529954567e+00 1.3569859176343424e+01 -1 0 0
5745 444 1 4.1499999999999998e-01 1.3173221548328517e+01 7.9124421196089525e+00 1.1033653802937064e+01 1 2 0
1253 444 1 4.1499999999999998e-01 1.0249552099501837e+01 1.0271227759032238e+01 1.0684326946376649e+01 -2 -1 0
5563 444 2 -8.2999999999999996e-01 1.1023169059965168e+01 9.5481470061536715e+00 1.3986519522042689e+01 -1 0 0
1027 444 2 -8.2999999999999996e-01 1.3464711437041357e+01 9.9741637233601885e+00 1.4798676829085004e+01 1 1 0
1029 444 1 4.1499999999999998e-01 1.2546094156762006e+01 9.9263970950627609e+00 1.4533926883812100e+01 1 1 0
5565 444 1 4.1499999999999998e-01 1.0556411018089168e+01 9.8476820417233153e+00 1.4766678293706921e+01 -1 0 0
494 444 1 4.1499999999999998e-01 1.3922237577431435e+01 7.3922029119627890e+00 1.5340636286002962e+01 0 0 0
4094 444 1 4.1499999999999998e-01 1.2327313967649896e+01 3.6695850292130960e+00 1.0133211393523169e+01 0 -2 0
1759 444 2 -8.2999999999999996e-01 7.6836287027565264e+00 8.0905567591250644e+00 1.5591137441211814e+01 3 0 0
3989 444 1 4.1499999999999998e-01 1.4808061507496012e+01 1.1073049007567631e+01 1.5150008017205234e+01 0 -1 0
1431 444 1 4.1499999999999998e-01 1.4029236996893896e+01 2.2321762059162089e+00 1.1893027387299558e+01 0 2 0
5894 444 1 4.1499999999999998e-01 1.0546161592264964e+01 1.0938467200038560e+00 1.6132921147417260e+01 1 0 0
87 444 1 4.1499999999999998e-01 1.3518004588012792e+01 1.0181138251456327e+01 1.1915162473125582e+01 1 -2 0
5991 444 1 4.1499999999999998e-01 1.4998353691410506e+01 7.9415714626646556e+00 1.3626756900521851e+01 1 -2 0
177 444 1 4.1499999999999998e-01 1.4774909746707348e+01 2.5045681301624869e+00 1.5063802719571525e+01 1 1 0
175 444 2 -8.2999999999999996e-01 1.3899596241133876e+01 2.2015798118209040e+00 1.4822439488076135e+01 1 1 0
1430 444 1 4.1499999999999998e-01 1.4423432184518530e+01 7.7424921619355502e-01 1.1788364649517971e+01 0 2 0
493 444 2 -8.2999999999999996e-01 1.4111305532194470e+01 7.7732410752649672e+00 1.6198129793977447e+01 0 0 0
85 444 2 -8.2999999999999996e-01 1.3977055044530042e+01 1.0942687521473093e+01 1.2269488984113416e+01 1 -2 0
1429 444 2 -8.2999999999999996e-01 1.3978486020506155e+01 1.3988322815358425e+00 1.2361209121894047e+01 0 2 0
86 444 1 4.1499999999999998e-01 1.4216655155652534e+01 1.0685641774991247e+01 1.3159854716961073e+01 1 -2 0
1028 444 1 4.1499999999999998e-01 1.3578593306219187e+01 9.2410343004410063e+00 1.5403477667400008e+01 1 1 0
5895 444 1 4.1499999999999998e-01 1.0245413661024191e+01 1.6817708857679483e+00 1.4770646864015445e+01 1 0 0
176 444 1 4.1499999999999998e-01 1.3995119804603071e+01 1.8822411425108134e+00 1.3925149135567521e+01 1 1 0
3783 444 1 4.1499999999999998e-01 1.2309608278839669e+01 1.0370250615210705e-01 1.3055133243508481e+01 0 0 0
2289 444 1 4.1499999999999998e-01 3.5994053147783693e-02 3.8711622050720633e+00 2.0406318792112216e+01 -3 2 0
746 444 1 4.1499999999999998e-01 3.9309563196997604e-02 6.2570861901777208e+00 1.6701158722943081e+01 2 -2 0
2341 444 2 -8.2999999999999996e-01 7.7458020549215731e-02 9.8061898207316105e+00 1.6304029658514015e+01 0 2 0
5358 444 1 4.1499999999999998e-01 4.8567463719229725e-01 9.2176172246098176e+00 1.9685292358694966e+01 2 3 0
3599 444 1 4.1499999999999998e-01 5.2613659810051052e+00 4.9091508210112069e+00 1.6542472407232847e+01 0 -3 0
745 444 2 -8.2999999999999996e-01 8.9650480849526848e-01 5.8311561811066364e+00 1.6706894544765909e+01 2 -2 0
753 444 1 4.1499999999999998e-01 1.6224585494074031e+00 1.0521648272228314e+01 2.2341113572559397e+01 -1 2 0
672 444 1 4.1499999999999998e-01 1.5904578969230923e+00 1.5648641771112342e+00 1.9416071735663195e+01 0 4 0
5357 444 1 4.1499999999999998e-01 4.0316127136894914e-01 9.5637352219363923e+00 1.8213800054951367e+01 2 3 0
1394 444 1 4.1499999999999998e-01 4.9506994921884058e+00 3.7395145436471705e-01 2.3306583154038648e+01 -1 3 0
2727 444 1 4.1499999999999998e-01 1.3255006603605557e-01 1.1583403585839953e+01 1.9970844444908852e+01 -1 -3 0
5252 444 1 4.1499999999999998e-01 2.5884614866371627e+00 7.4246166212571483e+00 2.2165140483355529e+01 -1 2 0
671 444 1 4.1499999999999998e-01 1.7012808232140448e+00 2.2772350260551377e+00 1.8084853623257271e+01 0 4 0
5111 444 1 4.1499999999999998e-01 2.6230977045995569e+00 8.6887417685863344e+00 1.7233766718709035e+01 2 2 0
3645 444 1 4.1499999999999998e-01 1.9615858022786226e+00 1.8817121449359087e+00 2.1909246956626099e+01 -1 1 0
5012 444 1 4.1499999999999998e-01 6.3827682525382734e+00 1.0658940163462793e+01 2.1054748407531356e+01 2 1 0
5110 444 2 -8.2999999999999996e-01 3.0605889535655639e+00 8.5509457255042776e+00 1.8073912858804185e+01 2 2 0
2414 444 1 4.1499999999999998e-01 1.8078208872084931e+00 3.2561547236848924e+00 1.6397353851998961e+01 4 -1 0
2415 444 1 4.1499999999999998e-01 2.3694583259068609e+00 4.4708794267688017e+00 1.7105098496520295e+01 4 -1 0
1663 444 2 -8.2999999999999996e-01 1.8554780590800548e+00 3.5465653004203843e+00 2.2607334319059326e+01 1 -1 0
2990 444 1 4.1499999999999998e-01 4.8349720397283313e+00 8.6273000509236155e+00 1.7986466207596742e+01 1 0 0
685 444 2 -8.2999999999999996e-01 6.0657763573359622e+00 4.5197528850466400e+00 1.8279078551458223e+01 -1 0 0
574 444 2 -8.2999999999999996e-01 7.0669226108333110e+00 9.0953681019266082e+00 2.0410646853441609e+01 0 0 0
576 444 1 4.1499999999999998e-01 6.6267002847106538e+00 9.1606613505630499e+00 1.9563195995019996e+01 0 0 0
1754 444 1 4.1499999999999998e-01 3.6715382034193582e+00 3.8064581421324024e+00 2.0905739664766383e+01 0 -1 0
1755 444 1 4.1499999999999998e-01 2.6340531366401647e+00 4.2497660631577201e+00 1.9896285112653402e+01 0 -1 0
1753 444 2 -8.2999999999999996e-01 3.3335995556772322e+00 3.6106337110177886e+00 2.0031850394373652e+01 0 -1 0
6012 444 3 1.0000000000000000e+00 4.5391391034460078e+00 2.4623709268005469e+00 1.8047827783290860e+01 1 1 0
2991 444 1 4.1499999999999998e-01 5.9739247119656396e+00 9.5207966262586066e+00 1.7543356867508464e+01 1 0 0
2989 444 2 -8.2999999999999996e-01 5.7851328054059863e+00 8.7275101622844744e+00 1.8044641288276296e+01 1 0 0
4615 444 2 -8.2999999999999996e-01 4.6901571672293603e+00 6.7434416585797781e+00 1.9880076914829900e+01 2 0 0
4616 444 1 4.1499999999999998e-01 5.2944093705678288e+00 7.3945729414575236e+00 1.9523510225312407e+01 2 0 0
5551 444 2 -8.2999999999999996e-01 5.7265961329435244e+00 1.3940336709232408e+00 2.1925043871842909e+01 -2 -1 0