LAMMPS data file via write_data, version 11 Aug 2017, timestep = 500000

7158 atoms
4 atom types
4000 bonds
1 bond types
2000 angles
1 angle types

0.0000000000000000e+00 4.5679949999999998e+01 xlo xhi
0.0000000000000000e+00 4.6885919999999999e+01 ylo yhi
0.0000000000000000e+00 6.5000000000000000e+01 zlo zhi

Masses

1 1.0079
2 15.9994
3 22.9898
4 107.868

Bond Coeffs # harmonic

1 450 0.9572

Angle Coeffs # harmonic

1 55 104.52

Atoms # full

6007 444 4 0.0000000000000000e+00 1.6907200000000000e+00 0.0000000000000000e+00 0.0000000000000000e+00 0 0 0
6008 444 4 0.0000000000000000e+00 4.2285000000000004e+00 1.4651900000000000e+00 0.0000000000000000e+00 0 0 0
6009 444 4 -2.0830000000000001e-02 1.6907700000000001e+00 0.0000000000000000e+00 7.1781499999999996e+00 0 0 0
6010 444 4 -2.0830000000000001e-02 4.2285500000000003e+00 1.4651900000000000e+00 7.1781499999999996e+00 0 0 0
6011 444 4 0.0000000000000000e+00 2.5366499999999998e+00 1.4651900000000000e+00 2.3926400000000001e+00 0 0 0
6012 444 4 0.0000000000000000e+00 5.0744199999999999e+00 0.0000000000000000e+00 2.3926400000000001e+00 0 0 0
6013 444 4 0.0000000000000000e+00 8.4509000000000001e-01 1.4651900000000000e+00 4.7824200000000001e+00 0 0 0
6014 444 4 0.0000000000000000e+00 3.3828600000000000e+00 0.0000000000000000e+00 4.7824499999999999e+00 0 0 0
6015 444 4 0.0000000000000000e+00 1.6907200000000000e+00 2.9303699999999999e+00 0.0000000000000000e+00 0 0 0
6016 444 4 0.0000000000000000e+00 4.2285000000000004e+00 4.3955599999999997e+00 0.0000000000000000e+00 0 0 0
6017 444 4 -2.0830000000000001e-02 1.6907700000000001e+00 2.9303699999999999e+00 7.1781899999999998e+00 0 0 0
6018 444 4 -2.0830000000000001e-02 4.2285500000000003e+00 4.3955599999999997e+00 7.1781600000000001e+00 0 0 0
6019 444 4 0.0000000000000000e+00 2.5366499999999998e+00 4.3955599999999997e+00 2.3926400000000001e+00 0 0 0
6020 444 4 0.0000000000000000e+00 5.0744199999999999e+00 2.9303699999999999e+00 2.3926400000000001e+00 0 0 0
6021 444 4 0.0000000000000000e+00 8.4509000000000001e-01 4.3955599999999997e+00 4.7824499999999999e+00 0 0 0
6022 444 4 0.0000000000000000e+00 3.3828700000000000e+00 2.9303699999999999e+00 4.7824400000000002e+00 0 0 0
6023 444 4 0.0000000000000000e+00 1.6907200000000000e+00 5.8607399999999998e+00 0.0000000000000000e+00 0 0 0
6024 444 4 0.0000000000000000e+00 4.2285000000000004e+00 7.3259299999999996e+00 0.0000000000000000e+00 0 0 0
6025 444 4 -2.0830000000000001e-02 1.6907700000000001e+00 5.8607399999999998e+00 7.1781499999999996e+00 0 0 0
6026 444 4 -2.0830000000000001e-02 4.2285500000000003e+00 7.3259299999999996e+00 7.1781499999999996e+00 0 0 0
6027 444 4 0.0000000000000000e+00 2.5366499999999998e+00 7.3259299999999996e+00 2.3926400000000001e+00 0 0 0
6028 444 4 0.0000000000000000e+00 5.0744199999999999e+00 5.8607399999999998e+00 2.3926400000000001e+00 0 0 0
6029 444 4 0.0000000000000000e+00 8.4509000000000001e-01 7.3259299999999996e+00 4.7824200000000001e+00 0 0 0
6030 444 4 0.0000000000000000e+00 3.3828600000000000e+00 5.8607399999999998e+00 4.7824499999999999e+00 0 0 0
6135 444 4 0.0000000000000000e+00 6.7662699999999996e+00 0.0000000000000000e+00 0.0000000000000000e+00 0 0 0
6137 444 4 -2.0830000000000001e-02 6.7663200000000003e+00 0.0000000000000000e+00 7.1781499999999996e+00 0 0 0
6139 444 4 0.0000000000000000e+00 7.6121999999999996e+00 1.4651900000000000e+00 2.3926400000000001e+00 0 0 0
6141 444 4 0.0000000000000000e+00 5.9206399999999997e+00 1.4651900000000000e+00 4.7824200000000001e+00 0 0 0
6143 444 4 0.0000000000000000e+00 6.7662699999999996e+00 2.9303699999999999e+00 0.0000000000000000e+00 0 0 0
6145 444 4 -2.0830000000000001e-02 6.7663200000000003e+00 2.9303699999999999e+00 7.1781899999999998e+00 0 0 0
6147 444 4 0.0000000000000000e+00 7.6121999999999996e+00 4.3955599999999997e+00 2.3926400000000001e+00 0 0 0
6149 444 4 0.0000000000000000e+00 5.9206399999999997e+00 4.3955599999999997e+00 4.7824499999999999e+00 0 0 0
6151 444 4 0.0000000000000000e+00 6.7662699999999996e+00 5.8607399999999998e+00 0.0000000000000000e+00 0 0 0
6153 444 4 -2.0830000000000001e-02 6.7663200000000003e+00 5.8607399999999998e+00 7.1781499999999996e+00 0 0 0
6155 444 4 0.0000000000000000e+00 7.6121999999999996e+00 7.3259299999999996e+00 2.3926400000000001e+00 0 0 0
6157 444 4 0.0000000000000000e+00 5.9206399999999997e+00 7.3259299999999996e+00 4.7824200000000001e+00 0 0 0
6136 444 4 0.0000000000000000e+00 9.3040500000000002e+00 1.4651900000000000e+00 0.0000000000000000e+00 0 0 0
6138 444 4 -2.0830000000000001e-02 9.3041000000000000e+00 1.4651900000000000e+00 7.1781499999999996e+00 0 0 0
6140 444 4 0.0000000000000000e+00 1.0149970000000000e+01 0.0000000000000000e+00 2.3926400000000001e+00 0 0 0
6142 444 4 0.0000000000000000e+00 8.4584100000000007e+00 0.0000000000000000e+00 4.7824499999999999e+00 0 0 0
6144 444 4 0.0000000000000000e+00 9.3040500000000002e+00 4.3955599999999997e+00 0.0000000000000000e+00 0 0 0
6146 444 4 -2.0830000000000001e-02 9.3041000000000000e+00 4.3955599999999997e+00 7.1781600000000001e+00 0 0 0
6148 444 4 0.0000000000000000e+00 1.0149970000000000e+01 2.9303699999999999e+00 2.3926400000000001e+00 0 0 0
6150 444 4 0.0000000000000000e+00 8.4584200000000003e+00 2.9303699999999999e+00 4.7824400000000002e+00 0 0 0
6152 444 4 0.0000000000000000e+00 9.3040500000000002e+00 7.3259299999999996e+00 0.0000000000000000e+00 0 0 0
6154 444 4 -2.0830000000000001e-02 9.3041000000000000e+00 7.3259299999999996e+00 7.1781499999999996e+00 0 0 0
6156 444 4 0.0000000000000000e+00 1.0149970000000000e+01 5.8607399999999998e+00 2.3926400000000001e+00 0 0 0
6158 444 4 0.0000000000000000e+00 8.4584100000000007e+00 5.8607399999999998e+00 4.7824499999999999e+00 0 0 0
6269 444 4 0.0000000000000000e+00 1.0996190000000000e+01 1.4651900000000000e+00 4.7824200000000001e+00 0 0 0
6277 444 4 0.0000000000000000e+00 1.0996190000000000e+01 4.3955599999999997e+00 4.7824499999999999e+00 0 0 0
6285 444 4 0.0000000000000000e+00 1.0996190000000000e+01 7.3259299999999996e+00 4.7824200000000001e+00 0 0 0
6031 444 4 0.0000000000000000e+00 1.6907200000000000e+00 8.7911099999999998e+00 0.0000000000000000e+00 0 0 0
6033 444 4 -2.0830000000000001e-02 1.6907700000000001e+00 8.7911099999999998e+00 7.1781899999999998e+00 0 0 0
6036 444 4 0.0000000000000000e+00 5.0744199999999999e+00 8.7911099999999998e+00 2.3926400000000001e+00 0 0 0
6038 444 4 0.0000000000000000e+00 3.3828700000000000e+00 8.7911099999999998e+00 4.7824400000000002e+00 0 0 0
6159 444 4 0.0000000000000000e+00 6.7662699999999996e+00 8.7911099999999998e+00 0.0000000000000000e+00 0 0 0
6161 444 4 -2.0830000000000001e-02 6.7663200000000003e+00 8.7911099999999998e+00 7.1781899999999998e+00 0 0 0
6032 444 4 0.0000000000000000e+00 4.2285000000000004e+00 1.0256300000000000e+01 0.0000000000000000e+00 0 0 0
6034 444 4 -2.0830000000000001e-02 4.2285500000000003e+00 1.0256300000000000e+01 7.1781600000000001e+00 0 0 0
6035 444 4 0.0000000000000000e+00 2.5366499999999998e+00 1.0256300000000000e+01 2.3926400000000001e+00 0 0 0
6037 444 4 0.0000000000000000e+00 8.4509000000000001e-01 1.0256300000000000e+01 4.7824499999999999e+00 0 0 0
6163 444 4 0.0000000000000000e+00 7.6121999999999996e+00 1.0256300000000000e+01 2.3926400000000001e+00 0 0 0
6165 444 4 0.0000000000000000e+00 5.9206399999999997e+00 1.0256300000000000e+01 4.7824499999999999e+00 0 0 0
6164 444 4 0.0000000000000000e+00 1.0149970000000000e+01 8.7911099999999998e+00 2.3926400000000001e+00 0 0 0
6166 444 4 0.0000000000000000e+00 8.4584200000000003e+00 8.7911099999999998e+00 4.7824400000000002e+00 0 0 0
6160 444 4 0.0000000000000000e+00 9.3040500000000002e+00 1.0256300000000000e+01 0.0000000000000000e+00 0 0 0
6162 444 4 -2.0830000000000001e-02 9.3041000000000000e+00 1.0256300000000000e+01 7.1781600000000001e+00 0 0 0
6293 444 4 0.0000000000000000e+00 1.0996190000000000e+01 1.0256300000000000e+01 4.7824499999999999e+00 0 0 0
3399 444 1 4.1499999999999998e-01 3.7507875342140737e+00 7.0761480147703750e+00 1.0231108175913095e+01 2 1 0
3397 444 2 -8.2999999999999996e-01 2.9791573275856593e+00 7.6015372138002357e+00 1.0442732562050269e+01 2 1 0
3398 444 1 4.1499999999999998e-01 2.2767460028477120e+00 6.9613049163470064e+00 1.0556542995155084e+01 2 1 0
5245 444 2 -8.2999999999999996e-01 5.1863280459015648e+00 5.9253474915379023e+00 9.9525787658727278e+00 5 0 0
5247 444 1 4.1499999999999998e-01 4.9616059012855995e+00 4.9994481436966867e+00 1.0044463282262537e+01 5 0 0
3433 444 2 -8.2999999999999996e-01 2.1995659686102029e+00 4.4313180685812146e+00 1.5527098629019100e+01 0 -1 0
5028 444 1 4.1499999999999998e-01 9.4812473293925414e+00 5.1289707829209314e+00 1.0305556191841893e+01 -3 3 0
5246 444 1 4.1499999999999998e-01 5.8058499642526549e+00 5.9507173899549901e+00 9.2233456891765329e+00 5 0 0
2945 444 1 4.1499999999999998e-01 1.1258907924236128e+01 1.1425477289770052e+01 1.3009056870144118e+01 -4 3 0
2770 444 2 -8.2999999999999996e-01 6.8708568859307650e+00 6.1126567426472169e+00 1.2567075932863521e+01 -1 2 0
576 444 1 4.1499999999999998e-01 1.0094923404909886e+00 5.6106894918502999e+00 1.1857721042216527e+01 -2 4 0
3435 444 1 4.1499999999999998e-01 2.2135578837660770e+00 3.9652972928188808e+00 1.4691119316368503e+01 0 -1 0
5026 444 2 -8.2999999999999996e-01 8.7409562988057541e+00 5.7093601564058716e+00 1.0128498163706562e+01 -3 3 0
5288 444 1 4.1499999999999998e-01 7.3925526205736514e+00 1.0010927644688508e+01 1.0162248006627133e+01 -2 1 0
580 444 2 -8.2999999999999996e-01 1.6993225172895143e+00 2.7385299087071711e+00 1.3343958813366129e+01 -1 1 0
5287 444 2 -8.2999999999999996e-01 6.4645146134631082e+00 9.8087228098514405e+00 1.0280954551454556e+01 -2 1 0
5027 444 1 4.1499999999999998e-01 9.0806282710182433e+00 6.5888552757888146e+00 1.0293857422210920e+01 -3 3 0
3512 444 1 4.1499999999999998e-01 4.8041047744117700e+00 2.4702778093192705e+00 9.2097514705050507e+00 -2 2 0
3511 444 2 -8.2999999999999996e-01 4.8190032272270003e+00 3.0680826915148995e+00 9.9571731684801943e+00 -2 2 0
3513 444 1 4.1499999999999998e-01 5.5994055832715368e+00 2.8158410883717062e+00 1.0450709857268748e+01 -2 2 0
5095 444 2 -8.2999999999999996e-01 8.6046331749302407e+00 5.8003118826422400e+00 1.4521058851535315e+01 3 -1 0
5289 444 1 4.1499999999999998e-01 6.0473270792839289e+00 1.0114585818542299e+01 9.4755760900337016e+00 -2 1 0
2772 444 1 4.1499999999999998e-01 6.6552554959949823e+00 6.1150876686486022e+00 1.1634476408867162e+01 -1 2 0
5601 444 1 4.1499999999999998e-01 6.5911301023062672e+00 2.0808052195636253e+00 1.2199572055863380e+01 -5 0 0
574 444 2 -8.2999999999999996e-01 1.2301867529854089e+00 5.6904511638592163e+00 1.0929731872226480e+01 -2 4 0
5097 444 1 4.1499999999999998e-01 7.9163799112150013e+00 5.7308057949181155e+00 1.3859462591002785e+01 3 -1 0
5470 444 2 -8.2999999999999996e-01 3.9476702849102394e+00 6.3766640413092182e+00 1.4494419247832257e+01 -4 1 0
5472 444 1 4.1499999999999998e-01 4.2982862955512831e+00 5.7787258551135583e+00 1.3834290368244767e+01 -4 1 0
5471 444 1 4.1499999999999998e-01 3.4246861310787144e+00 5.8186684686658170e+00 1.5070058316309629e+01 -4 1 0
5096 444 1 4.1499999999999998e-01 8.6639482734489270e+00 4.9227833549937809e+00 1.4898759214112966e+01 3 -1 0
4094 444 1 4.1499999999999998e-01 9.7351080099771163e+00 2.4309102773000451e+00 1.5987085437525453e+01 1 0 0
2771 444 1 4.1499999999999998e-01 6.2209701057817997e+00 5.5314357258875564e+00 1.2962121526823049e+01 -1 2 0
4733 444 1 4.1499999999999998e-01 1.0204051173582794e+01 1.0995322045043228e+01 1.0935724653458793e+01 -5 4 0
4280 444 1 4.1499999999999998e-01 7.7242215749086451e+00 3.9726908168124875e+00 1.0581645944821949e+01 1 0 0
413 444 1 4.1499999999999998e-01 4.7874400739707479e+00 9.9066265575102683e+00 1.0547108227710252e+01 -5 0 0
412 444 2 -8.2999999999999996e-01 3.8514212395943588e+00 1.0074013118852317e+01 1.0657027190477468e+01 -5 0 0
4279 444 2 -8.2999999999999996e-01 7.5381253814892135e+00 3.0975647868840928e+00 1.0921873755008203e+01 1 0 0
4281 444 1 4.1499999999999998e-01 8.3232640956504813e+00 2.5891237837367109e+00 1.0718706556210632e+01 1 0 0
4675 444 2 -8.2999999999999996e-01 1.0095530726721497e+01 8.3554742503675890e+00 1.0445349868285122e+01 -2 -2 0
1966 444 2 -8.2999999999999996e-01 2.7132482666050923e+00 8.1378199904442248e+00 1.3026621331718406e+01 0 1 0
1968 444 1 4.1499999999999998e-01 3.0846370390901399e+00 8.0125196982099212e+00 1.2153350066869590e+01 0 1 0
1967 444 1 4.1499999999999998e-01 3.1848717705445120e+00 7.5149274498205507e+00 1.3579621789645117e+01 0 1 0
4676 444 1 4.1499999999999998e-01 9.8771564846255213e+00 9.2164156690754258e+00 1.0088524811459434e+01 -2 -2 0
5741 444 1 4.1499999999999998e-01 5.5828110828022535e+00 4.0723539176502657e+00 1.4158461162867745e+01 -4 0 0
3616 444 2 -8.2999999999999996e-01 3.5467209778372681e+00 1.1495818975320796e+01 1.5521178385729586e+01 1 -1 0
4732 444 2 -8.2999999999999996e-01 9.4181867549763467e+00 1.0896916288700712e+01 1.0398169706048517e+01 -5 4 0
3434 444 1 4.1499999999999998e-01 1.2788142797874098e+00 4.6559256842669692e+00 1.5661264772735240e+01 0 -1 0
2975 444 1 4.1499999999999998e-01 8.5740899491544713e+00 6.8127652070061542e+00 1.5835199400682777e+01 -1 2 0
5742 444 1 4.1499999999999998e-01 5.1331496816620712e+00 3.3588999612690897e+00 1.2901208930650197e+01 -4 0 0
5740 444 2 -8.2999999999999996e-01 5.1666923470888122e+00 4.2238358426230684e+00 1.3309856259593875e+01 -4 0 0
2130 444 1 4.1499999999999998e-01 4.5494142623155485e+00 9.3579057187775341e+00 1.6141846538653624e+01 -2 -1 0
601 444 2 -8.2999999999999996e-01 9.4492125805490712e+00 1.6066567196325066e+00 1.2521924528017440e+01 -2 -3 0
5843 444 1 4.1499999999999998e-01 7.3077527704029972e+00 3.4548792302856439e+00 1.5466008596849536e+01 -1 4 0
3404 444 1 4.1499999999999998e-01 8.1950420150129166e-01 8.5867993426651754e+00 1.0760209949791955e+01 -1 -2 0
5842 444 2 -8.2999999999999996e-01 6.5114250860988765e+00 3.9492820834504827e+00 1.5660070964623161e+01 -1 4 0
328 444 2 -8.2999999999999996e-01 2.1505570346393745e+00 3.0173261501619293e+00 1.0883126333740593e+01 5 1 0
3996 444 1 4.1499999999999998e-01 6.9445455658150204e+00 8.1237152641712171e+00 1.2831944042030115e+01 -1 2 0
3994 444 2 -8.2999999999999996e-01 6.7449829742753451e+00 9.0598419363387599e+00 1.2840545215028930e+01 -1 2 0
330 444 1 4.1499999999999998e-01 1.8994916805771431e+00 3.8519256661006867e+00 1.0487345786543381e+01 5 1 0
4734 444 1 4.1499999999999998e-01 8.9407745914345824e+00 1.1717787202326672e+01 1.0518505746318617e+01 -5 4 0
3995 444 1 4.1499999999999998e-01 6.4512101186719990e+00 9.2507892042689228e+00 1.1949776383487521e+01 -1 2 0
329 444 1 4.1499999999999998e-01 3.1069149373713820e+00 3.0109778709273525e+00 1.0843479307853048e+01 5 1 0
2105 444 1 4.1499999999999998e-01 1.1142150465734313e+00 1.5440036643304613e+00 1.0469170343746367e+01 -2 1 0
582 444 1 4.1499999999999998e-01 9.8968066086193263e-01 3.3754776324310076e+00 1.3260665944045147e+01 -1 1 0
2129 444 1 4.1499999999999998e-01 3.7510693601219565e+00 8.1605880157220536e+00 1.5671771103092222e+01 -2 -1 0
4093 444 2 -8.2999999999999996e-01 9.2376617567007369e+00 3.2472821275463781e+00 1.5938958657036485e+01 1 0 0
3356 444 1 4.1499999999999998e-01 7.8066817167754419e+00 9.3033630972393055e+00 1.6072842390045484e+01 -1 -1 0
3355 444 2 -8.2999999999999996e-01 7.4873185564277902e+00 1.0052124376320348e+01 1.5569259328863751e+01 -1 -1 0
3357 444 1 4.1499999999999998e-01 6.9144495099733110e+00 9.6681441687250498e+00 1.4905472906475220e+01 -1 -1 0
602 444 1 4.1499999999999998e-01 9.1338084998068290e+00 9.8651218694081999e-01 1.1864526009196027e+01 -2 -3 0
2735 444 1 4.1499999999999998e-01 1.0310464931006774e+01 3.0770011415950824e+00 1.1719864318052339e+01 -3 0 0
1682 444 1 4.1499999999999998e-01 2.3145151306986387e+00 9.6787437476834004e-01 1.3621633353283599e+01 1 0 0
2936 444 1 4.1499999999999998e-01 9.1583531612161355e+00 7.0973264768413955e+00 1.3610681496723757e+01 1 -3 0
581 444 1 4.1499999999999998e-01 2.0519996683640236e+00 2.6549552834375585e+00 1.2458032196089482e+01 -1 1 0
2104 444 2 -8.2999999999999996e-01 4.3136505097294980e-01 8.7338895773757774e-01 1.0454217258226491e+01 -2 1 0
2060 444 1 4.1499999999999998e-01 1.7690429362142075e+00 9.6020764825384397e+00 1.3215199187023455e+01 -3 1 0
2734 444 2 -8.2999999999999996e-01 1.0626985466398953e+01 3.9580280759423969e+00 1.1520267939107798e+01 -3 0 0
603 444 1 4.1499999999999998e-01 9.1360113504257505e+00 1.2535913721565235e+00 1.3354679968655580e+01 -2 -3 0
5599 444 2 -8.2999999999999996e-01 5.7270192045909747e+00 1.7751807303146616e+00 1.2475504224742993e+01 -5 0 0
4677 444 1 4.1499999999999998e-01 1.0206099598538909e+01 8.5058077122204772e+00 1.1384182147222342e+01 -2 -2 0
3403 444 2 -8.2999999999999996e-01 1.1917363099465057e-01 9.2081533868422802e+00 1.0959429236396636e+01 -1 -2 0
5466 444 1 4.1499999999999998e-01 6.8908879266729173e-02 1.1055445104783791e+01 1.0990676552098245e+01 3 0 0
2736 444 1 4.1499999999999998e-01 1.0278148359993923e+01 4.5037574386415038e+00 1.2225054660401605e+01 -3 0 0
3615 444 1 4.1499999999999998e-01 9.4525932894970364e+00 9.3901573064816439e+00 1.3322844579799533e+01 -1 4 0
2935 444 2 -8.2999999999999996e-01 9.8640328981944307e+00 7.6844388446923348e+00 1.3339486011712790e+01 1 -3 0
2059 444 2 -8.2999999999999996e-01 1.1273537962327140e+00 1.0311693888772263e+01 1.3245365454102835e+01 -3 1 0
3405 444 1 4.1499999999999998e-01 2.0290809350279815e-01 9.3710015199158576e+00 1.1898951119511402e+01 -1 -2 0
3613 444 2 -8.2999999999999996e-01 9.7481324899737221e+00 1.0300138936909752e+01 1.3294154352357019e+01 -1 4 0
5600 444 1 4.1499999999999998e-01 5.4614366224389226e+00 1.1585145535431451e+00 1.1793286529992955e+01 -5 0 0
1875 444 1 4.1499999999999998e-01 5.7966637118747837e+00 1.0738642953104347e+00 1.4312232723267300e+01 0 2 0
2106 444 1 4.1499999999999998e-01 8.9273304209338722e-01 5.6795658854457115e-02 1.0645388970419830e+01 -2 1 0
3614 444 1 4.1499999999999998e-01 9.0118552017253801e+00 1.0802695464904783e+01 1.3642815643271264e+01 -1 4 0
2061 444 1 4.1499999999999998e-01 4.9380617461079052e-01 1.0034378075449737e+01 1.3907139640920702e+01 -3 1 0
2979 444 1 4.1499999999999998e-01 1.1124552120697198e+01 8.5787775037181757e-01 1.2757498256421119e+01 2 2 0
575 444 1 4.1499999999999998e-01 3.9951072130852583e-01 5.5571445420272418e+00 1.0473181232700460e+01 -2 4 0
1873 444 2 -8.2999999999999996e-01 6.0038825704906946e+00 8.4330795199908926e-01 1.5217846532057921e+01 0 2 0
414 444 1 4.1499999999999998e-01 3.4303847500838036e+00 9.2477854524775136e+00 1.0419734351403719e+01 -5 0 0
2937 444 1 4.1499999999999998e-01 1.0667023960689354e+01 7.2118176084114909e+00 1.3558726171653666e+01 1 -3 0
1002 444 1 4.1499999999999998e-01 3.7485548253128131e+00 1.1211461210057045e+01 1.2006536392694320e+01 1 -2 0
1681 444 2 -8.2999999999999996e-01 2.3547985667410312e+00 6.3852344741697195e-02 1.3309617347971816e+01 1 0 0
1001 444 1 4.1499999999999998e-01 3.5699886918831796e+00 1.1329999018388399e+01 1.3505188166830813e+01 1 -2 0
5894 444 1 4.1499999999999998e-01 6.8151666980906827e+00 1.1535012488624831e+01 1.0983361795903022e+01 -1 0 0
858 444 1 4.1499999999999998e-01 6.9273452325360259e+00 1.1711995268600715e+01 1.5438952808720122e+01 -1 -5 0
669 444 1 4.1499999999999998e-01 3.7556161407778732e+00 3.5657718186261778e+00 1.6674401144461413e+01 -3 1 0
3608 444 1 4.1499999999999998e-01 1.0867535629188650e+01 6.0707608366348620e-01 2.0694262532960611e+01 -4 -1 0
5910 444 1 4.1499999999999998e-01 8.9454298731139748e+00 6.4818498630072008e-01 1.7055743903029871e+01 5 -4 0
5189 444 1 4.1499999999999998e-01 6.2148664884817304e+00 7.6275244188615754e-01 1.8911018719760705e+01 5 1 0
4095 444 1 4.1499999999999998e-01 9.4563120020699944e+00 3.7095995239674151e+00 1.6748085935109213e+01 1 0 0
2976 444 1 4.1499999999999998e-01 9.6387222904358190e+00 7.2152080736191753e+00 1.6833444195265422e+01 -1 2 0
2974 444 2 -8.2999999999999996e-01 8.7105391655839384e+00 7.3294401489208409e+00 1.6629340602953775e+01 -1 2 0
2128 444 2 -8.2999999999999996e-01 3.8521844878485383e+00 8.7599538658599556e+00 1.6411209074071014e+01 -2 -1 0
2840 444 1 4.1499999999999998e-01 2.8099481219313127e-01 8.7648114711243377e+00 1.6812910963685098e+01 -1 1 0
5118 444 1 4.1499999999999998e-01 2.2673932051957411e+00 3.1274020364721117e-01 1.7208288187937292e+01 -1 0 0
549 444 1 4.1499999999999998e-01 7.0309174405494526e+00 1.1081088482889189e+01 2.2089007396617532e+01 2 0 0
1980 444 1 4.1499999999999998e-01 2.1983295192313148e-02 6.5311147225146051e+00 2.3703509659788651e+01 1 5 0
548 444 1 4.1499999999999998e-01 8.2094173423546692e+00 1.1191683088500282e+01 2.3032829529864461e+01 2 0 0
3428 444 1 4.1499999999999998e-01 5.2908342131086536e+00 6.3291076900350118e-01 1.6825577377419418e+01 2 0 0
5844 444 1 4.1499999999999998e-01 6.4620466675888366e+00 3.9591815601148297e+00 1.6615946022935539e+01 -1 4 0
3427 444 2 -8.2999999999999996e-01 5.3145046414234027e+00 1.8572958109799917e-01 1.7671568238486998e+01 2 0 0
5909 444 1 4.1499999999999998e-01 9.1168181017572927e+00 1.7167979359943148e+00 1.8114322188472872e+01 5 -4 0
4994 444 1 4.1499999999999998e-01 5.3750935479772177e-01 9.0375116423753834e+00 2.1437474605321913e+01 -1 -1 0
3429 444 1 4.1499999999999998e-01 4.4033457986293882e+00 1.7849615597278126e-01 1.7964773037358469e+01 2 0 0
668 444 1 4.1499999999999998e-01 3.5339665251874424e+00 2.4336973714896217e+00 1.7654795803432229e+01 -3 1 0
667 444 2 -8.2999999999999996e-01 3.8184274607596391e+00 3.3462383205780606e+00 1.7603966608091770e+01 -3 1 0
3607 444 2 -8.2999999999999996e-01 9.9511707421870472e+00 7.9140573228962019e-01 2.0488032963639888e+01 -4 -1 0
738 444 1 4.1499999999999998e-01 5.8478855572110309e+00 1.8639923328697146e+00 2.0968600401424897e+01 -2 -3 0
5816 444 1 4.1499999999999998e-01 6.8836316877893255e-01 7.1307793570260536e-01 2.0631350618014281e+01 0 -1 0
5058 444 1 4.1499999999999998e-01 3.7404149310955566e+00 8.8900528274354098e+00 2.0510204238144443e+01 -1 1 0
2086 444 2 -8.2999999999999996e-01 1.1270993832499780e+01 3.5039414733461558e+00 1.8190796529012356e+01 1 2 0
3633 444 1 4.1499999999999998e-01 7.0061534437569781e+00 1.0488908185477907e+01 1.9712808579799351e+01 -2 3 0
4862 444 1 4.1499999999999998e-01 1.0813634407976012e+01 1.1065149485162809e+01 2.2759828227673125e+01 4 -2 0
835 444 2 -8.2999999999999996e-01 6.3285257098433145e-01 6.1607303961410409e+00 1.8992709950016106e+01 -3 1 0
4685 444 1 4.1499999999999998e-01 2.4324128288297513e+00 7.2487344437787469e+00 1.8679132523690964e+01 -2 1 0
5190 444 1 4.1499999999999998e-01 7.2171171919201829e+00 1.8073418385322968e+00 1.9353987752870214e+01 5 1 0
3631 444 2 -8.2999999999999996e-01 6.5220721393924661e+00 1.1109399927880618e+01 2.0257682277249856e+01 -2 3 0
837 444 1 4.1499999999999998e-01 1.2824838915309880e+00 5.5548766218170167e+00 1.9349293457642073e+01 -3 1 0
5188 444 2 -8.2999999999999996e-01 6.6975460275573164e+00 1.0715167103944410e+00 1.9677776150611283e+01 5 1 0
2766 444 1 4.1499999999999998e-01 2.2429054482131918e+00 9.5669803109609663e+00 1.6709952217688421e+01 3 -1 0
4861 444 2 -8.2999999999999996e-01 9.9304639898639238e+00 1.1199504421506740e+01 2.2416039738399839e+01 4 -2 0
2256 444 1 4.1499999999999998e-01 9.9618228759723078e+00 8.6120931627637241e+00 2.0884996773499140e+01 3 0 0
1710 444 1 4.1499999999999998e-01 2.7452534314542261e+00 4.1547972180460366e+00 2.3269460196526769e+01 2 -3 0
3930 444 1 4.1499999999999998e-01 5.1757951228883599e+00 4.1114298216345251e+00 1.8216685214699893e+01 1 1 0
5475 444 1 4.1499999999999998e-01 2.0457373297255401e+00 3.6171777758265509e+00 2.0180661619953732e+01 4 0 0
3929 444 1 4.1499999999999998e-01 6.0257762232298315e+00 5.3434832790405498e+00 1.8443558498626707e+01 1 1 0
3928 444 2 -8.2999999999999996e-01 6.0721789124036674e+00 4.4377132122588971e+00 1.8137520693654679e+01 1 1 0
5473 444 2 -8.2999999999999996e-01 2.3044986718234473e+00 4.4754960296872088e+00 1.9845155366419938e+01 4 0 0
4603 444 2 -8.2999999999999996e-01 1.0030699964535742e+01 4.6272147439226030e+00 2.0405215860618227e+01 -3 0 0
4938 444 1 4.1499999999999998e-01 9.1363778686017696e+00 4.9043892124985355e-01 2.1938909309552425e+01 -3 0 0
5772 444 1 4.1499999999999998e-01 8.7602522374786016e+00 3.6365647335537483e+00 1.9536988032833726e+01 -2 3 0
5770 444 2 -8.2999999999999996e-01 8.2033567046183791e+00 3.1501192882813878e+00 1.8929147574631362e+01 -2 3 0
736 444 2 -8.2999999999999996e-01 5.3546036571303031e+00 2.2713633851865205e+00 2.1680607984289232e+01 -2 -3 0
4605 444 1 4.1499999999999998e-01 9.9874529697304908e+00 4.3057838063791660e+00 2.1305795411447146e+01 -3 0 0
4604 444 1 4.1499999999999998e-01 1.0391817084721296e+01 5.5102932267687894e+00 2.0482666092930184e+01 -3 0 0
5771 444 1 4.1499999999999998e-01 7.5127550404699770e+00 3.7680478301205520e+00 1.8689427967736680e+01 -2 3 0
3673 444 2 -8.2999999999999996e-01 5.0310362311252170e+00 9.7631617016812573e+00 2.3671303241889490e+01 -2 -1 0
1404 444 1 4.1499999999999998e-01 1.0218787028102970e+01 7.1115000184284289e+00 2.2664836873921185e+01 0 1 0
1402 444 2 -8.2999999999999996e-01 9.7819903832177069e+00 7.0028880140577483e+00 2.1820061935744818e+01 0 1 0
1403 444 1 4.1499999999999998e-01 8.9258816636198173e+00 6.6344556971816315e+00 2.2038163344698500e+01 0 1 0
1829 444 1 4.1499999999999998e-01 8.8574970845005030e+00 4.6656478542008211e+00 2.3054234262303272e+01 -2 2 0
1828 444 2 -8.2999999999999996e-01 9.3520493027419516e+00 3.8556016783275218e+00 2.2929835168097519e+01 -2 2 0
1830 444 1 4.1499999999999998e-01 8.9121491333899368e+00 3.2172300887411147e+00 2.3491263152683477e+01 -2 2 0
4686 444 1 4.1499999999999998e-01 3.4978622467442917e+00 7.9620075309129765e+00 1.7874176532109466e+01 -2 1 0
5474 444 1 4.1499999999999998e-01 2.7385671623332022e+00 4.2870331862369673e+00 1.9013110387540252e+01 4 0 0
4128 444 1 4.1499999999999998e-01 4.4565668727415133e+00 5.3581903740352477e+00 2.2914669640710944e+01 -2 2 0
2255 444 1 4.1499999999999998e-01 8.8984867080008900e+00 9.2655994719144346e+00 2.0028177066663925e+01 3 0 0
4126 444 2 -8.2999999999999996e-01 5.2803519970000048e+00 5.1570148018831654e+00 2.2470667048163811e+01 -2 2 0
4127 444 1 4.1499999999999998e-01 5.1603927180495450e+00 4.2694720577299483e+00 2.2132866084625078e+01 -2 2 0
1485 444 1 4.1499999999999998e-01 7.4649038440513094e+00 6.3170825114739868e+00 2.3915085341016223e+01 4 1 0
2254 444 2 -8.2999999999999996e-01 9.7048028731656011e+00 9.4537584643882688e+00 2.0508470814581333e+01 3 0 0
3881 444 1 4.1499999999999998e-01 6.7887526862429599e+00 7.8712502966502536e+00 1.9699995553805216e+01 -5 -1 0
3882 444 1 4.1499999999999998e-01 7.6722974712831160e+00 8.1637826543988172e+00 1.8505981925621210e+01 -5 -1 0
4637 444 1 4.1499999999999998e-01 4.7611104623223088e+00 6.9706337025993985e+00 1.9566861339349156e+01 2 -4 0
1483 444 2 -8.2999999999999996e-01 7.6329988689435364e+00 5.8195566479884162e+00 2.3114808055463630e+01 4 1 0
1484 444 1 4.1499999999999998e-01 6.7633219022354636e+00 5.6324082344157329e+00 2.2761439469891986e+01 4 1 0
4638 444 1 4.1499999999999998e-01 5.6487192230690590e+00 6.6313952916638437e+00 2.0745404310633354e+01 2 -4 0
4636 444 2 -8.2999999999999996e-01 5.6657105364199909e+00 6.7583790038803064e+00 1.9796816625898295e+01 2 -4 0
3674 444 1 4.1499999999999998e-01 5.6572045258677752e+00 1.0465342221928015e+01 2.3494986577207410e+01 -2 -1 0
3675 444 1 4.1499999999999998e-01 4.7893984132984349e+00 9.4341011652277960e+00 2.2805530678231190e+01 -2 -1 0
1387 444 2 -8.2999999999999996e-01 1.1307071907486753e+01 6.7615213603515789e+00 2.4277623935474306e+01 0 -1 0
4863 444 1 4.1499999999999998e-01 9.8502403084623040e+00 1.0563355580719490e+01 2.1705328398311977e+01 4 -2 0
3880 444 2 -8.2999999999999996e-01 7.3976171373889956e+00 8.5217395918753578e+00 1.9350167536792760e+01 -5 -1 0
5398 444 2 -8.2999999999999996e-01 2.2069456250637938e+00 9.1802341094189401e+00 2.3124235127708126e+01 -1 1 0
5399 444 1 4.1499999999999998e-01 3.0355698530944522e+00 9.0390477750665461e+00 2.2666326473529999e+01 -1 1 0
5400 444 1 4.1499999999999998e-01 1.9269925309305869e+00 8.3041438042334228e+00 2.3389422330947848e+01 -1 1 0
2764 444 2 -8.2999999999999996e-01 1.5916872739583672e+00 9.5009635654842981e+00 1.7408371580149403e+01 3 -1 0
4684 444 2 -8.2999999999999996e-01 3.2506610788095673e+00 7.7368415541460589e+00 1.8771073205115876e+01 -2 1 0
5056 444 2 -8.2999999999999996e-01 4.4471687845932228e+00 9.0875127008240231e+00 2.1124810623434364e+01 -1 1 0
4936 444 2 -8.2999999999999996e-01 8.7722094012147949e+00 2.8402369204433398e-02 2.2693982002972305e+01 -3 0 0
3609 444 1 4.1499999999999998e-01 9.9341253806982870e+00 8.8755085117597410e-01 1.9535826098973025e+01 -4 -1 0
2765 444 1 4.1499999999999998e-01 2.0994914276365289e+00 9.2841694851295866e+00 1.8190271610159346e+01 3 -1 0
737 444 1 4.1499999999999998e-01 5.7199722375963944e+00 1.8858629224683510e+00 2.2476928978005041e+01 -2 -3 0
836 444 1 4.1499999999999998e-01 2.6601325005560517e-01 6.5986015577595110e+00 1.9760778562737382e+01 -3 1 0
5908 444 2 -8.2999999999999996e-01 9.4523048121441153e+00 8.6377547019899814e-01 1.7838578899480453e+01 5 -4 0
5815 444 2 -8.2999999999999996e-01 7.6477838990058222e-01 1.6286797880775985e+00 2.0899802462091909e+01 0 -1 0
5057 444 1 4.1499999999999998e-01 5.2134718039568320e+00 9.2341322481221582e+00 2.0570270527801991e+01 -1 1 0
2088 444 1 4.1499999999999998e-01 1.0781156416209429e+01 3.9506696282400231e+00 1.8881249289272620e+01 1 2 0
5116 444 2 -8.2999999999999996e-01 2.6926922775878999e+00 7.4830721393100785e-01 1.7946959090975675e+01 -1 0 0
5444 444 1 4.1499999999999998e-01 1.6759437095118761e+00 1.0881242990374732e+01 2.3906464917600303e+01 1 0 0
987 444 1 4.1499999999999998e-01 3.4639703100513670e+00 2.1811907596239504e+00 2.2029723752290003e+01 -3 1 0
985 444 2 -8.2999999999999996e-01 2.6843703695489163e+00 2.4211013583569692e+00 2.2530622058062647e+01 -3 1 0