LAMMPS data file via write_data, version 11 Aug 2017, timestep = 500000

7156 atoms
4 atom types
4000 bonds
1 bond types
2000 angles
1 angle types

0.0000000000000000e+00 4.5679949999999998e+01 xlo xhi
0.0000000000000000e+00 4.6885919999999999e+01 ylo yhi
0.0000000000000000e+00 6.5000000000000000e+01 zlo zhi

Masses

1 1.0079
2 15.9994
3 22.9898
4 107.868

Bond Coeffs # harmonic

1 450 0.9572

Angle Coeffs # harmonic

1 500 104.52

Atoms # full

6005 444 4 0.0000000000000000e+00 1.6907200000000000e+00 0.0000000000000000e+00 0.0000000000000000e+00 0 0 0
6006 444 4 0.0000000000000000e+00 4.2285000000000004e+00 1.4651900000000000e+00 0.0000000000000000e+00 0 0 0
6007 444 4 -1.3890000000000000e-02 1.6907700000000001e+00 0.0000000000000000e+00 7.1781499999999996e+00 0 0 0
6008 444 4 -1.3890000000000000e-02 4.2285500000000003e+00 1.4651900000000000e+00 7.1781499999999996e+00 0 0 0
6009 444 4 0.0000000000000000e+00 2.5366499999999998e+00 1.4651900000000000e+00 2.3926400000000001e+00 0 0 0
6010 444 4 0.0000000000000000e+00 5.0744199999999999e+00 0.0000000000000000e+00 2.3926400000000001e+00 0 0 0
6011 444 4 0.0000000000000000e+00 8.4509000000000001e-01 1.4651900000000000e+00 4.7824200000000001e+00 0 0 0
6012 444 4 0.0000000000000000e+00 3.3828600000000000e+00 0.0000000000000000e+00 4.7824499999999999e+00 0 0 0
6013 444 4 0.0000000000000000e+00 1.6907200000000000e+00 2.9303699999999999e+00 0.0000000000000000e+00 0 0 0
6014 444 4 0.0000000000000000e+00 4.2285000000000004e+00 4.3955599999999997e+00 0.0000000000000000e+00 0 0 0
6015 444 4 -1.3890000000000000e-02 1.6907700000000001e+00 2.9303699999999999e+00 7.1781899999999998e+00 0 0 0
6016 444 4 -1.3890000000000000e-02 4.2285500000000003e+00 4.3955599999999997e+00 7.1781600000000001e+00 0 0 0
6017 444 4 0.0000000000000000e+00 2.5366499999999998e+00 4.3955599999999997e+00 2.3926400000000001e+00 0 0 0
6018 444 4 0.0000000000000000e+00 5.0744199999999999e+00 2.9303699999999999e+00 2.3926400000000001e+00 0 0 0
6019 444 4 0.0000000000000000e+00 8.4509000000000001e-01 4.3955599999999997e+00 4.7824499999999999e+00 0 0 0
6020 444 4 0.0000000000000000e+00 3.3828700000000000e+00 2.9303699999999999e+00 4.7824400000000002e+00 0 0 0
6021 444 4 0.0000000000000000e+00 1.6907200000000000e+00 5.8607399999999998e+00 0.0000000000000000e+00 0 0 0
6022 444 4 0.0000000000000000e+00 4.2285000000000004e+00 7.3259299999999996e+00 0.0000000000000000e+00 0 0 0
6023 444 4 -1.3890000000000000e-02 1.6907700000000001e+00 5.8607399999999998e+00 7.1781499999999996e+00 0 0 0
6024 444 4 -1.3890000000000000e-02 4.2285500000000003e+00 7.3259299999999996e+00 7.1781499999999996e+00 0 0 0
6025 444 4 0.0000000000000000e+00 2.5366499999999998e+00 7.3259299999999996e+00 2.3926400000000001e+00 0 0 0
6026 444 4 0.0000000000000000e+00 5.0744199999999999e+00 5.8607399999999998e+00 2.3926400000000001e+00 0 0 0
6027 444 4 0.0000000000000000e+00 8.4509000000000001e-01 7.3259299999999996e+00 4.7824200000000001e+00 0 0 0
6028 444 4 0.0000000000000000e+00 3.3828600000000000e+00 5.8607399999999998e+00 4.7824499999999999e+00 0 0 0
6133 444 4 0.0000000000000000e+00 6.7662699999999996e+00 0.0000000000000000e+00 0.0000000000000000e+00 0 0 0
6135 444 4 -1.3890000000000000e-02 6.7663200000000003e+00 0.0000000000000000e+00 7.1781499999999996e+00 0 0 0
6137 444 4 0.0000000000000000e+00 7.6121999999999996e+00 1.4651900000000000e+00 2.3926400000000001e+00 0 0 0
6139 444 4 0.0000000000000000e+00 5.9206399999999997e+00 1.4651900000000000e+00 4.7824200000000001e+00 0 0 0
6141 444 4 0.0000000000000000e+00 6.7662699999999996e+00 2.9303699999999999e+00 0.0000000000000000e+00 0 0 0
6143 444 4 -1.3890000000000000e-02 6.7663200000000003e+00 2.9303699999999999e+00 7.1781899999999998e+00 0 0 0
6145 444 4 0.0000000000000000e+00 7.6121999999999996e+00 4.3955599999999997e+00 2.3926400000000001e+00 0 0 0
6147 444 4 0.0000000000000000e+00 5.9206399999999997e+00 4.3955599999999997e+00 4.7824499999999999e+00 0 0 0
6149 444 4 0.0000000000000000e+00 6.7662699999999996e+00 5.8607399999999998e+00 0.0000000000000000e+00 0 0 0
6151 444 4 -1.3890000000000000e-02 6.7663200000000003e+00 5.8607399999999998e+00 7.1781499999999996e+00 0 0 0
6153 444 4 0.0000000000000000e+00 7.6121999999999996e+00 7.3259299999999996e+00 2.3926400000000001e+00 0 0 0
6155 444 4 0.0000000000000000e+00 5.9206399999999997e+00 7.3259299999999996e+00 4.7824200000000001e+00 0 0 0
6134 444 4 0.0000000000000000e+00 9.3040500000000002e+00 1.4651900000000000e+00 0.0000000000000000e+00 0 0 0
6136 444 4 -1.3890000000000000e-02 9.3041000000000000e+00 1.4651900000000000e+00 7.1781499999999996e+00 0 0 0
6138 444 4 0.0000000000000000e+00 1.0149970000000000e+01 0.0000000000000000e+00 2.3926400000000001e+00 0 0 0
6140 444 4 0.0000000000000000e+00 8.4584100000000007e+00 0.0000000000000000e+00 4.7824499999999999e+00 0 0 0
6142 444 4 0.0000000000000000e+00 9.3040500000000002e+00 4.3955599999999997e+00 0.0000000000000000e+00 0 0 0
6144 444 4 -1.3890000000000000e-02 9.3041000000000000e+00 4.3955599999999997e+00 7.1781600000000001e+00 0 0 0
6146 444 4 0.0000000000000000e+00 1.0149970000000000e+01 2.9303699999999999e+00 2.3926400000000001e+00 0 0 0
6148 444 4 0.0000000000000000e+00 8.4584200000000003e+00 2.9303699999999999e+00 4.7824400000000002e+00 0 0 0
6150 444 4 0.0000000000000000e+00 9.3040500000000002e+00 7.3259299999999996e+00 0.0000000000000000e+00 0 0 0
6152 444 4 -1.3890000000000000e-02 9.3041000000000000e+00 7.3259299999999996e+00 7.1781499999999996e+00 0 0 0
6154 444 4 0.0000000000000000e+00 1.0149970000000000e+01 5.8607399999999998e+00 2.3926400000000001e+00 0 0 0
6156 444 4 0.0000000000000000e+00 8.4584100000000007e+00 5.8607399999999998e+00 4.7824499999999999e+00 0 0 0
6267 444 4 0.0000000000000000e+00 1.0996190000000000e+01 1.4651900000000000e+00 4.7824200000000001e+00 0 0 0
6275 444 4 0.0000000000000000e+00 1.0996190000000000e+01 4.3955599999999997e+00 4.7824499999999999e+00 0 0 0
6283 444 4 0.0000000000000000e+00 1.0996190000000000e+01 7.3259299999999996e+00 4.7824200000000001e+00 0 0 0
70 444 2 -8.2999999999999996e-01 9.7888645958067428e+00 5.5885880380697248e+00 1.3793543556378756e+01 -1 2 0
72 444 1 4.1499999999999998e-01 9.3441922964942830e+00 4.8029008669546887e+00 1.3475432969099362e+01 -1 2 0
5339 444 1 4.1499999999999998e-01 9.8740198819001890e+00 7.2649828934166614e+00 1.0302291717846886e+01 2 2 0
5338 444 2 -8.2999999999999996e-01 1.0295724453749813e+01 6.4682910063589940e+00 9.9802992971085374e+00 2 2 0
3696 444 1 4.1499999999999998e-01 2.0903314390931036e+00 4.5911491197630783e+00 1.1796703445273062e+01 6 2 0
5340 444 1 4.1499999999999998e-01 1.1233305839641879e+01 6.6477558522360978e+00 1.0050761636291650e+01 2 2 0
3695 444 1 4.1499999999999998e-01 1.2503055538154699e+00 5.1339340202740900e+00 1.0660201830709378e+01 6 2 0
2863 444 2 -8.2999999999999996e-01 1.1348701385021949e+01 3.4432826233539462e+00 1.0446358434851366e+01 2 0 0
5437 444 2 -8.2999999999999996e-01 7.9410049988212688e+00 4.2165606026062994e+00 1.0184867765537302e+01 -1 5 0
2705 444 1 4.1499999999999998e-01 2.7716755997176454e+00 1.3875433362051366e+00 1.4920113193412028e+01 2 -1 0
4026 444 1 4.1499999999999998e-01 6.5293758002100200e+00 3.9920454656952487e+00 1.3027038607972427e+01 -1 3 0
5438 444 1 4.1499999999999998e-01 7.6120109541245151e+00 5.0897891074506516e+00 9.9716357639567406e+00 -1 5 0
5439 444 1 4.1499999999999998e-01 8.7046808904371193e+00 4.1030506622643026e+00 9.6190526609482294e+00 -1 5 0
1812 444 1 4.1499999999999998e-01 5.0302921782715986e+00 4.5138766358399396e+00 1.1855757354261872e+01 2 4 0
4024 444 2 -8.2999999999999996e-01 7.4812454305058926e+00 3.8986445012613324e+00 1.3065146230411516e+01 -1 3 0
1200 444 1 4.1499999999999998e-01 2.7450340315751887e+00 2.9699692299766114e+00 1.0503487043460424e+01 -1 3 0
4025 444 1 4.1499999999999998e-01 7.7708918586363573e+00 4.0222396036046852e+00 1.2161231935007343e+01 -1 3 0
2864 444 1 4.1499999999999998e-01 1.0755763634104053e+01 4.1899247227107699e+00 1.0531106543946352e+01 2 0 0
1811 444 1 4.1499999999999998e-01 4.4830849539878104e+00 3.1271076360183967e+00 1.2119065272697078e+01 2 4 0
1810 444 2 -8.2999999999999996e-01 4.8685990208760854e+00 3.8848416007481155e+00 1.2558894674034489e+01 2 4 0
1199 444 1 4.1499999999999998e-01 3.1931072852861520e+00 1.5367453776426492e+00 1.0311144061308008e+01 -1 3 0
1198 444 2 -8.2999999999999996e-01 3.5125479786963321e+00 2.4016706981840792e+00 1.0568232206826789e+01 -1 3 0
5007 444 1 4.1499999999999998e-01 6.2803701686851436e+00 5.6206897625213781e-01 1.2417142829369610e+01 -3 -1 0
4368 444 1 4.1499999999999998e-01 3.6104970253507984e+00 3.1866928032607302e+00 1.5348434677093476e+01 2 4 0
4215 444 1 4.1499999999999998e-01 3.2979181511066247e+00 4.7066379224264603e+00 1.3111231424329942e+01 1 -5 0
71 444 1 4.1499999999999998e-01 1.0717912374317777e+01 5.4177848604726426e+00 1.3638852588349398e+01 -1 2 0
5078 444 1 4.1499999999999998e-01 8.5319359945238631e+00 2.0857715754764183e+00 1.3340448737910510e+01 -1 3 0
2520 444 1 4.1499999999999998e-01 1.4349282226945685e+00 6.8362032395860650e+00 1.3330478049654765e+01 -2 -1 0
5077 444 2 -8.2999999999999996e-01 9.0222981935999655e+00 1.8213739760514300e+00 1.4118825946120367e+01 -1 3 0
5079 444 1 4.1499999999999998e-01 8.5270089726223315e+00 2.1889366738514884e+00 1.4850822121842111e+01 -1 3 0
5909 444 1 4.1499999999999998e-01 7.9049572688881717e+00 7.1382277651199866e-01 1.0135823415703349e+01 -2 0 0
5240 444 1 4.1499999999999998e-01 5.9632981438738160e+00 6.3007140967327118e+00 1.0209499472029616e+01 1 2 0
1152 444 1 4.1499999999999998e-01 5.5193965408556993e+00 7.9743652138193521e-01 1.6227470710551437e+01 1 -5 0
3431 444 1 4.1499999999999998e-01 7.0851343033093057e+00 2.4636408038361082e+00 1.0403653847681372e+01 -2 -4 0
3430 444 2 -8.2999999999999996e-01 6.4829503266958852e+00 1.7195934081020485e+00 1.0404143071178670e+01 -2 -4 0
3432 444 1 4.1499999999999998e-01 5.6146573600704537e+00 2.1135407760098404e+00 1.0319851627199020e+01 -2 -4 0
5824 444 2 -8.2999999999999996e-01 7.6576753796601711e+00 3.6522051304661156e+00 1.5903700930088053e+01 1 2 0
4783 444 2 -8.2999999999999996e-01 1.2179818697856897e+00 1.3092209152491578e+00 1.5192181344052218e+01 0 2 0
5241 444 1 4.1499999999999998e-01 4.7664994892128663e+00 5.5049634506334533e+00 9.7337379910208899e+00 1 2 0
5945 444 1 4.1499999999999998e-01 1.0574379814423478e+01 1.2214443484469812e+00 1.3901344630250744e+01 -4 -3 0
2518 444 2 -8.2999999999999996e-01 1.1951608587223423e+00 7.6803499153738803e+00 1.2948168576949117e+01 -2 -1 0
4785 444 1 4.1499999999999998e-01 7.6591450643866232e-01 9.6173219154706391e-01 1.5961023927284664e+01 0 2 0
3694 444 2 -8.2999999999999996e-01 1.8281496785707296e+00 4.4077115227794721e+00 1.0894570896471755e+01 6 2 0
5239 444 2 -8.2999999999999996e-01 5.2520422113225393e+00 5.7424882568893247e+00 1.0523713957452353e+01 1 2 0
4214 444 1 4.1499999999999998e-01 2.2896239908554361e+00 4.6822364527108924e+00 1.4240232134101829e+01 1 -5 0
3965 444 1 4.1499999999999998e-01 9.8739588394573889e+00 6.5619186760796042e+00 1.5302821856561874e+01 3 0 0
4213 444 2 -8.2999999999999996e-01 2.4283406291945142e+00 5.0227490488080537e+00 1.3356467080984077e+01 1 -5 0
5825 444 1 4.1499999999999998e-01 7.7428908523577311e+00 3.7308113740220690e+00 1.4953547746856149e+01 1 2 0
2856 444 1 4.1499999999999998e-01 7.9673576278638700e+00 7.0878702878073589e+00 1.0754702747948333e+01 0 5 0
2854 444 2 -8.2999999999999996e-01 7.4667585245374273e+00 6.8858452562149006e+00 9.9642480280073116e+00 0 5 0
3750 444 1 4.1499999999999998e-01 1.1281019645843898e+01 1.6514174509190256e+00 1.0501086460113781e+01 -1 2 0
3748 444 2 -8.2999999999999996e-01 1.0983565796159343e+01 7.4664719862828210e-01 1.0596709814762599e+01 -1 2 0
2704 444 2 -8.2999999999999996e-01 3.7198075823915060e+00 1.2983111469748922e+00 1.4823599106722019e+01 2 -1 0
4784 444 1 4.1499999999999998e-01 6.2436559520379853e-01 1.1294546321111270e+00 1.4463115948821569e+01 0 2 0
3872 444 1 4.1499999999999998e-01 8.8465601885081835e+00 3.5882171847916544e-01 1.5158005685558701e+01 1 0 0
2706 444 1 4.1499999999999998e-01 3.8356344266022537e+00 4.8371914431532653e-01 1.4334461243834941e+01 2 -1 0
1054 444 2 -8.2999999999999996e-01 1.6200778355984452e-01 6.4350665975490191e+00 1.0552953437395770e+01 1 3 0
5025 444 1 4.1499999999999998e-01 4.0455576847963455e+00 6.9351941226376628e+00 1.1410370692724831e+01 -1 5 0
4290 444 1 4.1499999999999998e-01 8.0609441515695739e+00 6.2791671471377830e+00 1.3183123897192226e+01 3 0 0
1056 444 1 4.1499999999999998e-01 4.9574951670561840e-01 7.2904623548149692e+00 1.0282494472026661e+01 1 3 0
4366 444 2 -8.2999999999999996e-01 2.9599891240303844e+00 3.8023929523915676e+00 1.5686050739657054e+01 2 4 0
5826 444 1 4.1499999999999998e-01 6.7832100065389254e+00 3.9911949734030783e+00 1.6095085400145475e+01 1 2 0
357 444 1 4.1499999999999998e-01 4.7182094455784167e+00 5.1861993824118704e+00 1.5857290341970476e+01 -1 0 0
4367 444 1 4.1499999999999998e-01 2.2486612615261765e+00 3.2480286540393002e+00 1.6006869440967087e+01 2 4 0
3964 444 2 -8.2999999999999996e-01 9.8161786604541099e+00 6.8583679983777648e+00 1.6211123522057026e+01 3 0 0
5944 444 2 -8.2999999999999996e-01 1.1274240181857843e+01 6.6790132166710148e-01 1.3554909351395466e+01 -4 -3 0
264 444 1 4.1499999999999998e-01 5.2348107487212314e-01 2.6596981629147862e+00 9.7337185024332165e+00 2 3 0
4288 444 2 -8.2999999999999996e-01 7.7849519353580083e+00 7.1655077398787093e+00 1.2949755895828440e+01 3 0 0
3749 444 1 4.1499999999999998e-01 1.0092729206940634e+01 7.4861455175285996e-01 1.0246512546909759e+01 -1 2 0
5946 444 1 4.1499999999999998e-01 1.1085245525518948e+01 5.9967496144736421e-01 1.2619036553981823e+01 -4 -3 0
5024 444 1 4.1499999999999998e-01 2.9060513489511939e+00 7.5340347103141339e+00 1.2207120709747043e+01 -1 5 0
4289 444 1 4.1499999999999998e-01 6.9937150377767230e+00 7.3145933060132986e+00 1.3467394703276675e+01 3 0 0
5908 444 2 -8.2999999999999996e-01 8.5184046059038110e+00 3.3347897993946655e-02 9.8585725601884899e+00 -2 0 0
5023 444 2 -8.2999999999999996e-01 3.5464634343215002e+00 7.7435701715132161e+00 1.1527268373776746e+01 -1 5 0
2855 444 1 4.1499999999999998e-01 7.9449409113965297e+00 7.3223491348205387e+00 9.2592388223782791e+00 0 5 0
5318 444 1 4.1499999999999998e-01 1.0470056081621600e+01 7.6470758982313987e+00 1.3250136845850005e+01 1 0 0
2519 444 1 4.1499999999999998e-01 6.7469250097836486e-01 7.4553779534403217e+00 1.2176979404070442e+01 -2 -1 0
5815 444 2 -8.2999999999999996e-01 1.1044488091246023e+01 3.9345439828884043e-01 2.0505555026187103e+01 -3 3 0
1908 444 1 4.1499999999999998e-01 8.8981318829325778e-02 5.1283423303069551e+00 2.2540633480608314e+01 0 -4 0
1907 444 1 4.1499999999999998e-01 1.1401634811483687e+00 6.1824994795051671e+00 2.2265563056307041e+01 0 -4 0
5931 444 1 4.1499999999999998e-01 3.2267774921650134e+00 7.5503849458681298e+00 1.6627658761267377e+01 2 -4 0
1593 444 1 4.1499999999999998e-01 6.9814809274496192e-01 2.9181026855563901e+00 1.8074292082540147e+01 0 6 0
609 444 1 4.1499999999999998e-01 5.4547461010164877e-01 5.1166744503985493e+00 1.8870210752735296e+01 -1 1 0
1565 444 1 4.1499999999999998e-01 5.1383114772495997e-01 2.8460915390142856e+00 2.2350011469438616e+01 0 2 0
300 444 1 4.1499999999999998e-01 6.5769556716979114e+00 6.3113797997359455e+00 1.6768792304824917e+01 2 -4 0
355 444 2 -8.2999999999999996e-01 5.4099743816600379e+00 5.0113680228387709e+00 1.6495355647190713e+01 -1 0 0
298 444 2 -8.2999999999999996e-01 7.1568148913565368e+00 7.0026573517516786e+00 1.7088370409711757e+01 2 -4 0
299 444 1 4.1499999999999998e-01 8.0255380538061960e+00 6.6008902498241362e+00 1.7099983888529881e+01 2 -4 0
3628 444 2 -8.2999999999999996e-01 2.6039104929046584e+00 6.1164463151327677e+00 1.7228608974398757e+01 0 2 0
796 444 2 -8.2999999999999996e-01 7.6636322462611481e+00 9.8077727881392718e-01 1.9141434380572541e+01 -3 0 0
798 444 1 4.1499999999999998e-01 7.3191523325593115e+00 5.9583425828812120e-01 1.8335590532945961e+01 -3 0 0
2179 444 2 -8.2999999999999996e-01 1.1088418949099433e+01 4.6205091860607581e+00 1.8772315782158287e+01 -2 -4 0
3385 444 2 -8.2999999999999996e-01 2.0882929048252663e+00 1.8414980153805613e+00 1.7970315974452941e+01 0 -1 0
2772 444 1 4.1499999999999998e-01 8.4347255802399719e+00 2.4330938653166920e+00 2.0924608405977860e+01 1 3 0
3387 444 1 4.1499999999999998e-01 2.8800715042278298e+00 2.0198070512547779e+00 1.8477784556916507e+01 0 -1 0
2853 444 1 4.1499999999999998e-01 2.2153076184401175e+00 1.8736793643025851e+00 2.1003649299181898e+01 -1 -6 0
5147 444 1 4.1499999999999998e-01 8.8499007472991362e+00 2.3962854443256068e+00 1.8319879852204611e+01 -1 1 0
797 444 1 4.1499999999999998e-01 6.8934875388515575e+00 1.1060079313410562e+00 1.9695894719412905e+01 -3 0 0
2852 444 1 4.1499999999999998e-01 3.4867676587115799e+00 2.6444788571109092e+00 2.0718776305169293e+01 -1 -6 0
356 444 1 4.1499999999999998e-01 4.9431817718078523e+00 4.7670505348191607e+00 1.7294508787153497e+01 -1 0 0
1934 444 1 4.1499999999999998e-01 4.0036412712891067e+00 5.2362896464509570e+00 1.9951205111827619e+01 -3 4 0
1935 444 1 4.1499999999999998e-01 3.4904336634206619e+00 6.3200565460361107e+00 1.9027104262476254e+01 -3 4 0
1933 444 2 -8.2999999999999996e-01 4.2969535468974547e+00 5.9547944584019801e+00 1.9390891604621746e+01 -3 4 0
2770 444 2 -8.2999999999999996e-01 9.2808582460177913e+00 2.5102581730129256e+00 2.1365445125604229e+01 1 3 0
537 444 1 4.1499999999999998e-01 8.4961490581939181e+00 5.9328525450158454e+00 2.1878472458100653e+01 2 0 0
2851 444 2 -8.2999999999999996e-01 3.1348682763895406e+00 1.7555416379667024e+00 2.0765566361899285e+01 -1 -6 0
536 444 1 4.1499999999999998e-01 7.7715778521214585e+00 6.7945675407650992e+00 2.0866376092621572e+01 2 0 0
5146 444 2 -8.2999999999999996e-01 9.5531370046350688e+00 2.6920263871785912e+00 1.7741754924902033e+01 -1 1 0
5148 444 1 4.1499999999999998e-01 9.1008711756307523e+00 3.0873819299498337e+00 1.6996515110832270e+01 -1 1 0
535 444 2 -8.2999999999999996e-01 7.9598115289502624e+00 6.7219898399186411e+00 2.1802075466600460e+01 2 0 0
4614 444 1 4.1499999999999998e-01 4.6801369289050392e+00 1.0993642129705483e+00 2.0645464759162905e+01 0 2 0
5590 444 2 -8.2999999999999996e-01 3.4978105413112832e+00 4.2850544201607930e+00 2.1304259719186998e+01 5 3 0
5592 444 1 4.1499999999999998e-01 3.8019773210922589e+00 4.4666723130998225e+00 2.2193489370285533e+01 5 3 0
5591 444 1 4.1499999999999998e-01 2.5860302403048134e+00 4.5763500369706227e+00 2.1298314231351863e+01 5 3 0
1906 444 2 -8.2999999999999996e-01 9.3093253541699994e-01 5.2622773783358596e+00 2.2105418837433817e+01 0 -4 0
4612 444 2 -8.2999999999999996e-01 5.5083833001591982e+00 6.3646897978548000e-01 2.0771828376973524e+01 0 2 0
1319 444 1 4.1499999999999998e-01 6.4304710701398475e+00 5.9123191841508440e+00 2.3588074123552119e+01 0 2 0
4613 444 1 4.1499999999999998e-01 5.7521313069891598e+00 8.2380104625951101e-01 2.1678319136263774e+01 0 2 0
2771 444 1 4.1499999999999998e-01 9.5567023853799977e+00 3.4116681479383661e+00 2.1199301603280723e+01 1 3 0
2516 444 1 4.1499999999999998e-01 6.9390609462566974e+00 7.5882298855657604e+00 1.8829631213988186e+01 -1 -4 0
3966 444 1 4.1499999999999998e-01 1.0605082231532943e+01 6.5112516891886072e+00 1.6627505396629982e+01 3 0 0
2181 444 1 4.1499999999999998e-01 1.0547706836784993e+01 3.8995591736502955e+00 1.8449680820344625e+01 -2 -4 0
476 444 1 4.1499999999999998e-01 2.8356066910983255e+00 3.4270780830345822e+00 2.4111593331077174e+01 -2 1 0
3629 444 1 4.1499999999999998e-01 1.6899676778363162e+00 6.1257648410587100e+00 1.7512958170727000e+01 0 2 0
4823 444 1 4.1499999999999998e-01 1.0487314165733398e+01 5.6490501022770641e+00 2.1591508624409343e+01 -1 -1 0
3630 444 1 4.1499999999999998e-01 2.6694379125783518e+00 5.3518984738288360e+00 1.6656415865293500e+01 0 2 0
608 444 1 4.1499999999999998e-01 4.8102314947065850e-02 6.2878000014754285e+00 1.9690564794232444e+01 -1 1 0
2111 444 1 4.1499999999999998e-01 5.6172220432545474e+00 1.7744391708585889e+00 2.3778197374386497e+01 -7 -3 0
475 444 2 -8.2999999999999996e-01 2.3150012582726949e+00 2.6644414587797778e+00 2.4363759492329898e+01 -2 1 0
2893 444 2 -8.2999999999999996e-01 1.0882710218236955e+01 1.1994205405521581e+00 2.3796130562830825e+01 -4 3 0
4824 444 1 4.1499999999999998e-01 1.0388059104660464e+01 5.0234324277918931e+00 2.0216500980345000e+01 -1 -1 0
3057 444 1 4.1499999999999998e-01 4.7454731763023439e+00 4.7880467240291589e+00 2.4147739878035271e+01 2 -3 0
3055 444 2 -8.2999999999999996e-01 3.8981990584604760e+00 5.0940743760463825e+00 2.3824157941696868e+01 2 -3 0
3056 444 1 4.1499999999999998e-01 3.7521551119335097e+00 5.9227786496381043e+00 2.4280394772484104e+01 2 -3 0
5816 444 1 4.1499999999999998e-01 1.0582607663519745e+01 1.2052390711985423e+00 2.0296021455937321e+01 -3 3 0
2110 444 2 -8.2999999999999996e-01 6.0329614059587673e+00 1.0772053908243184e+00 2.3270991307618928e+01 -7 -3 0
2517 444 1 4.1499999999999998e-01 5.9324014861139993e+00 6.6956462101525087e+00 1.9523768158253663e+01 -1 -4 0
4822 444 2 -8.2999999999999996e-01 9.9942010703367998e+00 5.0008392459240287e+00 2.1088623014319364e+01 -1 -1 0
2112 444 1 4.1499999999999998e-01 6.7222859133767923e+00 7.4178539958721290e-01 2.3844190411760113e+01 -7 -3 0
1564 444 2 -8.2999999999999996e-01 5.1418795682355400e-01 2.3320037410647405e+00 2.1542579891977571e+01 0 2 0
2895 444 1 4.1499999999999998e-01 1.0823642883874847e+01 1.5195503777267629e+00 2.2895985843668093e+01 -4 3 0
2894 444 1 4.1499999999999998e-01 1.0155070626060466e+01 1.6243759841143959e+00 2.4250207984536789e+01 -4 3 0
1591 444 2 -8.2999999999999996e-01 1.2166880824014248e-01 3.6818748731991393e+00 1.8050700284270196e+01 0 6 0
3386 444 1 4.1499999999999998e-01 1.9410382044733148e+00 9.0179517611657023e-01 1.8077583457983263e+01 0 -1 0
1865 444 1 4.1499999999999998e-01 7.3280169183950616e-01 7.5408801624478172e-01 2.1295224564251555e+01 0 4 0
3287 444 1 4.1499999999999998e-01 1.1035647231799025e+01 1.6736267513445242e+00 1.7520881555974011e+01 0 -2 0
2515 444 2 -8.2999999999999996e-01 6.5712051224777763e+00 7.3887254193773240e+00 1.9690509737406316e+01 -1 -4 0
1150 444 2 -8.2999999999999996e-01 6.1025483861573395e+00 3.6162256944631721e-01 1.6848946727445593e+01 1 -5 0
3288 444 1 4.1499999999999998e-01 1.1176320556760432e+01 2.2180285134776029e-01 1.7926237202988364e+01 0 -2 0
607 444 2 -8.2999999999999996e-01 6.6632361332561640e-01 6.0577183335664602e+00 1.8996953468689671e+01 -1 1 0
1469 444 1 4.1499999999999998e-01 5.5567517418901335e+00 7.7671279480292386e+00 2.1810169522235537e+01 3 2 0
92 444 1 4.1499999999999998e-01 2.7285043277727400e-01 7.5327316203664827e+00 2.3847263983257658e+01 1 3 0
1151 444 1 4.1499999999999998e-01 6.8762011729263648e+00 1.3426294581221043e-01 1.6333193306657698e+01 1 -5 0
3404 444 1 4.1499999999999998e-01 2.3369763228731002e+00 9.2394985777762495e-01 2.8740972381232940e+01 1 -4 0
2507 444 1 4.1499999999999998e-01 4.1182146028394490e-01 4.5196252381916597e+00 3.1423904681589420e+01 7 1 0
5627 444 1 4.1499999999999998e-01 5.4002821664264165e+00 7.4867250517238606e+00 2.6154824732436975e+01 -4 0 0
4732 444 2 -8.2999999999999996e-01 3.2230860950491955e+00 1.2499575290578795e+00 3.2491928680672643e+01 -1 3 0
3757 444 2 -8.2999999999999996e-01 1.2972258521850708e+00 4.5510398419485609e+00 2.6361858461833027e+01 2 0 0
3403 444 2 -8.2999999999999996e-01 2.0785304246509222e+00 4.0396200718804698e-01 2.9501926083837887e+01 1 -4 0
3758 444 1 4.1499999999999998e-01 1.3134229294197988e+00 5.4989047998675300e+00 2.6229487612775692e+01 2 0 0
146 444 1 4.1499999999999998e-01 8.8094619426163945e+00 2.3869743354376380e+00 3.0436728197062799e+01 1 -1 0
5315 444 1 4.1499999999999998e-01 9.1853904554254360e+00 6.5128452322587171e-01 3.2124210060223874e+01 -3 7 0
707 444 1 4.1499999999999998e-01 1.0889826597288263e+01 1.4572383775528550e+00 3.2182373812310942e+01 -1 2 0
4957 444 2 -8.2999999999999996e-01 8.7619837194040890e+00 7.0712072222705995e+00 2.7186909261169948e+01 3 -1 0
2131 444 2 -8.2999999999999996e-01 1.1315163081609304e+01 5.9851103071516576e+00 2.7517651982486459e+01 0 0 0
477 444 1 4.1499999999999998e-01 1.5548790798797070e+00 3.0313871196432447e+00 2.4815198575696815e+01 -2 1 0
4734 444 1 4.1499999999999998e-01 4.1357886561693622e+00 1.1659912542076407e+00 3.2215964448183975e+01 -1 3 0
3912 444 1 4.1499999999999998e-01 5.2830370208406725e+00 1.3806707948510548e+00 3.0153838391583985e+01 0 2 0
1318 444 2 -8.2999999999999996e-01 6.3161008583556519e+00 5.9504991938018552e+00 2.4537649721409345e+01 0 2 0
2039 444 1 4.1499999999999998e-01 6.8744675839114686e+00 2.5012004251342104e+00 2.9039635360293346e+01 -1 0 0
2132 444 1 4.1499999999999998e-01 1.1258064076454508e+01 5.0880907155547064e+00 2.7188519352873790e+01 0 0 0
2038 444 2 -8.2999999999999996e-01 7.7024318080638068e+00 2.9813622074837327e+00 2.9051958344485531e+01 -1 0 0
147 444 1 4.1499999999999998e-01 1.0288313837930879e+01 2.0662253641292252e+00 3.0391876721233889e+01 1 -1 0
3910 444 2 -8.2999999999999996e-01 5.4466253893972620e+00 1.0508539177672804e+00 3.1037405857582357e+01 0 2 0
4296 444 1 4.1499999999999998e-01 3.2599553917232582e-01 7.6212005431645347e+00 2.6456835790882124e+01 -1 5 0
2554 444 2 -8.2999999999999996e-01 1.0833965265412111e+01 1.5304894317842468e-01 2.7865835221594182e+01 1 4 0
2040 444 1 4.1499999999999998e-01 7.7202710800651628e+00 3.4504229511406987e+00 2.8217754199125391e+01 -1 0 0
4656 444 1 4.1499999999999998e-01 6.6068285293347220e+00 3.3428229507481246e+00 2.6124368983908223e+01 5 4 0
3438 444 1 4.1499999999999998e-01 4.1108009885506798e+00 1.9720682304775423e+00 2.8169667405946534e+01 0 1 0
26 444 1 4.1499999999999998e-01 1.0318974086769163e+01 3.9443489900378763e+00 2.5147198795894742e+01 -1 2 0
3080 444 1 4.1499999999999998e-01 2.2282247808730311e+00 1.4888841941777464e+00 2.6428221563994462e+01 1 -3 0
5916 444 1 4.1499999999999998e-01 2.0228884483310265e+00 2.5396474139720837e+00 3.1755449992584225e+01 2 2 0
4554 444 1 4.1499999999999998e-01 1.4379809662393246e+00 5.0965622854365620e+00 2.8857598955934993e+01 -3 -1 0
5915 444 1 4.1499999999999998e-01 5.1422318236527098e-01 2.4586629973669174e+00 3.1659191150887459e+01 2 2 0
4654 444 2 -8.2999999999999996e-01 6.4241026167472297e+00 2.4456524093226717e+00 2.5845212756485246e+01 5 4 0
1320 444 1 4.1499999999999998e-01 6.8484905731803964e+00 6.6965521928138880e+00 2.4813689570240509e+01 0 2 0
25 444 2 -8.2999999999999996e-01 9.5280577631899011e+00 3.4168362512551611e+00 2.5035782252832934e+01 -1 2 0
4314 444 1 4.1499999999999998e-01 4.1656755055828105e+00 5.6099235751533350e+00 2.6129475191712700e+01 3 -1 0
3437 444 1 4.1499999999999998e-01 5.2164039225557364e+00 1.6617823427760448e+00 2.7183128145839543e+01 0 1 0
1263 444 1 4.1499999999999998e-01 2.5741817064035373e+00 7.3171117677093667e-01 2.4735933918863896e+01 -2 -1 0
3081 444 1 4.1499999999999998e-01 1.9207898115121451e+00 2.8634496770847169e+00 2.6983153079269822e+01 1 -3 0
2874 444 1 4.1499999999999998e-01 3.9969709244527616e+00 7.1503869887221585e+00 2.9302671415176217e+01 3 2 0
4313 444 1 4.1499999999999998e-01 3.4735024267429817e+00 5.1522299331765504e+00 2.7395693260734156e+01 3 -1 0
1029 444 1 4.1499999999999998e-01 7.8958444313793814e+00 5.5917676282394755e+00 2.7208332210815524e+01 0 -3 0
5704 444 2 -8.2999999999999996e-01 9.3470277536247508e+00 7.4755564320571519e+00 3.0017146790021112e+01 -5 0 0
4655 444 1 4.1499999999999998e-01 7.2705883099836557e+00 2.0016029912570752e+00 2.5895355344726447e+01 5 4 0
3147 444 1 4.1499999999999998e-01 6.2957348594909082e+00 3.9476655616560175e+00 3.2227792403450152e+01 -8 2 0
1028 444 1 4.1499999999999998e-01 6.6491063216136119e+00 4.7329880178117376e+00 2.7202283926960884e+01 0 -3 0
4312 444 2 -8.2999999999999996e-01 4.3402650694783533e+00 5.2689524274196051e+00 2.7006680400743861e+01 3 -1 0
3079 444 2 -8.2999999999999996e-01 2.1184008353222805e+00 1.9659213914382752e+00 2.7250782283875939e+01 1 -3 0
1027 444 2 -8.2999999999999996e-01 7.6031717115512079e+00 4.6827233130913379e+00 2.7143425004699374e+01 0 -3 0
4553 444 1 4.1499999999999998e-01 2.2763294101562517e+00 4.2800622429489756e+00 2.9818012685299617e+01 -3 -1 0
3146 444 1 4.1499999999999998e-01 7.3335634775315546e+00 3.3579559632589846e+00 3.1296637538524010e+01 -8 2 0
5914 444 2 -8.2999999999999996e-01 1.2622319997741029e+00 2.9925041122241334e+00 3.1391369714702833e+01 2 2 0
2508 444 1 4.1499999999999998e-01 7.9876414318529071e-02 5.9862372666890842e+00 3.1599281274576970e+01 7 1 0
3436 444 2 -8.2999999999999996e-01 5.0291166453361749e+00 1.7064807143964651e+00 2.8120762231983981e+01 0 1 0
4958 444 1 4.1499999999999998e-01 9.6959458085466004e+00 6.8716021889955110e+00 2.7250975495985976e+01 3 -1 0
3911 444 1 4.1499999999999998e-01 5.8523130271250086e+00 1.7861447823670316e+00 3.1496749680494172e+01 0 2 0
3145 444 2 -8.2999999999999996e-01 6.5679755631413821e+00 3.1247297310342987e+00 3.1821721033741571e+01 -8 2 0
2873 444 1 4.1499999999999998e-01 4.7213323815580708e+00 6.3993016261666806e+00 2.8205827652809354e+01 3 2 0
145 444 2 -8.2999999999999996e-01 9.5442860231603390e+00 2.1247073325208334e+00 3.0991238163523867e+01 1 -1 0
2872 444 2 -8.2999999999999996e-01 4.7902581245481919e+00 7.1713687279232028e+00 2.8767426656337705e+01 3 2 0
3405 444 1 4.1499999999999998e-01 1.7831608979130669e+00 1.0491455076506810e+00 3.0144364255007293e+01 1 -4 0
4552 444 2 -8.2999999999999996e-01 2.3448708031278018e+00 4.8880221665755723e+00 2.9081861275262753e+01 -3 -1 0
27 444 1 4.1499999999999998e-01 8.9927466206617321e+00 3.6220786434024625e+00 2.5802300017018663e+01 -1 2 0
772 444 2 -8.2999999999999996e-01 3.0763030276709205e+00 7.2319441987466746e+00 2.5236160436313579e+01 1 1 0
3759 444 1 4.1499999999999998e-01 5.4809622530012814e-01 4.2497048828853288e+00 2.5847820705825256e+01 2 0 0
1227 444 1 4.1499999999999998e-01 1.1133253668466160e+01 2.5915212962681422e+00 2.7054578992697966e+01 1 6 0