LAMMPS data file via write_data, version 11 Aug 2017, timestep = 5000000

7196 atoms
4 atom types
4000 bonds
1 bond types
2000 angles
1 angle types

0.0000000000000000e+00 4.5679949999999998e+01 xlo xhi
0.0000000000000000e+00 4.6885919999999999e+01 ylo yhi
0.0000000000000000e+00 6.5000000000000000e+01 zlo zhi

Masses

1 1.0079
2 15.9994
3 22.9898
4 107.868

Bond Coeffs # harmonic

1 450 0.9572

Angle Coeffs # harmonic

1 55 104.52

Atoms # full

6045 444 4 0.0000000000000000e+00 1.6907200000000000e+00 0.0000000000000000e+00 0.0000000000000000e+00 0 0 0
6046 444 4 0.0000000000000000e+00 4.2285000000000004e+00 1.4651900000000000e+00 0.0000000000000000e+00 0 0 0
6047 444 4 -1.5278000000000000e-01 1.6907700000000001e+00 0.0000000000000000e+00 7.1781499999999996e+00 0 0 0
6048 444 4 -1.5278000000000000e-01 4.2285500000000003e+00 1.4651900000000000e+00 7.1781499999999996e+00 0 0 0
6049 444 4 0.0000000000000000e+00 2.5366499999999998e+00 1.4651900000000000e+00 2.3926400000000001e+00 0 0 0
6050 444 4 0.0000000000000000e+00 5.0744199999999999e+00 0.0000000000000000e+00 2.3926400000000001e+00 0 0 0
6051 444 4 0.0000000000000000e+00 8.4509000000000001e-01 1.4651900000000000e+00 4.7824200000000001e+00 0 0 0
6052 444 4 0.0000000000000000e+00 3.3828600000000000e+00 0.0000000000000000e+00 4.7824499999999999e+00 0 0 0
6053 444 4 0.0000000000000000e+00 1.6907200000000000e+00 2.9303699999999999e+00 0.0000000000000000e+00 0 0 0
6054 444 4 0.0000000000000000e+00 4.2285000000000004e+00 4.3955599999999997e+00 0.0000000000000000e+00 0 0 0
6055 444 4 -1.5278000000000000e-01 1.6907700000000001e+00 2.9303699999999999e+00 7.1781899999999998e+00 0 0 0
6056 444 4 -1.5278000000000000e-01 4.2285500000000003e+00 4.3955599999999997e+00 7.1781600000000001e+00 0 0 0
6057 444 4 0.0000000000000000e+00 2.5366499999999998e+00 4.3955599999999997e+00 2.3926400000000001e+00 0 0 0
6058 444 4 0.0000000000000000e+00 5.0744199999999999e+00 2.9303699999999999e+00 2.3926400000000001e+00 0 0 0
6059 444 4 0.0000000000000000e+00 8.4509000000000001e-01 4.3955599999999997e+00 4.7824499999999999e+00 0 0 0
6060 444 4 0.0000000000000000e+00 3.3828700000000000e+00 2.9303699999999999e+00 4.7824400000000002e+00 0 0 0
2247 444 1 4.1499999999999998e-01 2.4080660293833454e+00 2.5341777324226253e+00 9.8996201317538066e+00 -1 1 0
2245 444 2 -8.2999999999999996e-01 2.4585820116546557e+00 1.7503349920219644e+00 1.0446676877375408e+01 -1 1 0
2246 444 1 4.1499999999999998e-01 2.8428457110680574e+00 1.0842342370634572e+00 9.8766914949204203e+00 -1 1 0
5761 444 2 -8.2999999999999996e-01 1.9269340903854639e+00 6.5501298091355542e-01 1.2959755898338699e+01 -2 3 0
4617 444 1 4.1499999999999998e-01 3.3076250877458766e+00 3.1137282884289883e+00 1.3360273119051229e+01 -1 1 0
4477 444 2 -8.2999999999999996e-01 2.8896889044435298e-01 3.7656486149469584e+00 1.2998222354207332e+01 3 2 0
4615 444 2 -8.2999999999999996e-01 2.9434186681081340e+00 3.4106667633433680e+00 1.4194188195271572e+01 -1 1 0
4616 444 1 4.1499999999999998e-01 2.0035816033338363e+00 3.4899799372142395e+00 1.4030944986376690e+01 -1 1 0
5763 444 1 4.1499999999999998e-01 2.7892033461682213e+00 2.5128551406562649e-01 1.3058385187928712e+01 -2 3 0
5762 444 1 4.1499999999999998e-01 1.9991344415517791e+00 1.1841381650931502e+00 1.2165372164526390e+01 -2 3 0
2568 444 1 4.1499999999999998e-01 4.1652497208705537e+00 4.3581731159370127e+00 1.4605206721865313e+01 -4 1 0
2567 444 1 4.1499999999999998e-01 4.6401246295403080e+00 5.2234963786703199e+00 1.5753076347922477e+01 -4 1 0
5812 444 2 -8.2999999999999996e-01 4.1474587904426237e+00 3.7664071520959466e+00 1.1763844412211043e+01 4 4 0
5120 444 1 4.1499999999999998e-01 1.8105890920926291e+00 3.0398159646840104e+00 1.6019207940730212e+01 -2 -2 0
2566 444 2 -8.2999999999999996e-01 4.8164106020560240e+00 5.0213251166060964e+00 1.4834228204154137e+01 -4 1 0
773 444 1 4.1499999999999998e-01 3.1988946070522655e+00 4.6971962276342856e+00 9.2753863799473137e+00 0 -1 0
5814 444 1 4.1499999999999998e-01 3.4688529456519466e+00 4.0823821489163139e+00 1.1167282745763183e+01 4 4 0
772 444 2 -8.2999999999999996e-01 2.5137327861082865e+00 4.5547382599890476e+00 9.9284493688466053e+00 0 -1 0
5813 444 1 4.1499999999999998e-01 4.6787805402802904e+00 3.1746947327947708e+00 1.1231110408759299e+01 4 4 0
1629 444 1 4.1499999999999998e-01 4.6421993164245832e+00 1.0741287703366524e+00 1.6136277491431354e+01 -2 4 0
147 444 1 4.1499999999999998e-01 8.2906607984553360e-01 5.3488047377923129e+00 1.2995030948585965e+01 -4 3 0
4479 444 1 4.1499999999999998e-01 4.7791615681596544e-01 3.8235561133915623e+00 1.2061644330596005e+01 3 2 0
2165 444 1 4.1499999999999998e-01 5.5645248575834447e+00 2.0298325679705558e+00 9.2156987152905128e+00 -3 1 0
774 444 1 4.1499999999999998e-01 1.6969689066269840e+00 4.7326190644239512e+00 9.4620938310814697e+00 0 -1 0
1627 444 2 -8.2999999999999996e-01 5.5016507797470400e+00 1.3829245679296500e+00 1.5849536339615639e+01 -2 4 0
5835 444 1 4.1499999999999998e-01 2.9183177111057873e-01 7.0532865521281296e-01 9.9276172671248357e+00 2 0 0
2164 444 2 -8.2999999999999996e-01 5.5322807071001421e+00 2.1518753602022285e+00 1.0164539099475700e+01 -3 1 0
3387 444 1 4.1499999999999998e-01 4.8611738961384576e-01 2.4418516161955928e-01 1.4091951135599361e+01 -2 1 0
5222 444 1 4.1499999999999998e-01 5.5447795335344869e+00 7.7115456494382917e-01 1.3654826100397914e+01 -1 -2 0
2166 444 1 4.1499999999999998e-01 5.1732172728574604e+00 1.3304671951526770e+00 1.0500090282621423e+01 -3 1 0
325 444 2 -8.2999999999999996e-01 1.0361692022501185e+00 3.7482376303732662e-01 2.1403133718388915e+01 2 1 0
5119 444 2 -8.2999999999999996e-01 1.2195407374981744e+00 2.6993991448816730e+00 1.6690780784276591e+01 -2 -2 0
5935 444 2 -8.2999999999999996e-01 8.4298177943806174e-02 2.1923959933781769e+00 1.9541161228085006e+01 1 0 0
2514 444 1 4.1499999999999998e-01 3.1729673696571212e+00 1.3969773949479105e+00 2.2777708029137248e+01 1 1 0
2524 444 2 -8.2999999999999996e-01 4.0141252411336453e-01 5.3029367618023082e+00 2.2992630004375425e+01 1 2 0
5121 444 1 4.1499999999999998e-01 1.4304665285454234e+00 1.7673637697008668e+00 1.6746028036874822e+01 -2 -2 0
2525 444 1 4.1499999999999998e-01 4.5981268975355954e-01 5.6719119929348381e+00 2.3873923698474517e+01 1 2 0
4436 444 1 4.1499999999999998e-01 3.0628372823204058e+00 4.1499517491115494e+00 2.2238212292605709e+01 2 0 0
4207 444 2 -8.2999999999999996e-01 3.7792985156171541e+00 1.8098416536775315e+00 2.0281509116356201e+01 1 5 0
4435 444 2 -8.2999999999999996e-01 3.5863033315733008e+00 4.2451204681578156e+00 2.1442499760253007e+01 2 0 0
2875 444 2 -8.2999999999999996e-01 4.6682274218133912e+00 5.4428884284596935e+00 1.7684588887026031e+01 2 -1 0
4437 444 1 4.1499999999999998e-01 3.7140116669003462e+00 3.3491935453794146e+00 2.1130668110400222e+01 2 0 0
256 444 2 -8.2999999999999996e-01 2.1346383899686139e-01 5.5870899904732596e+00 2.0186835799296439e+01 1 2 0
2848 444 2 -8.2999999999999996e-01 2.7316284663969030e+00 4.0901432172748837e+00 2.4262142025166209e+01 0 -1 0
2849 444 1 4.1499999999999998e-01 2.0430063862045724e+00 4.5779583523118319e+00 2.3810403289772726e+01 0 -1 0
257 444 1 4.1499999999999998e-01 2.9150851697434954e-01 5.2726390436292130e+00 2.1087536749031539e+01 1 2 0
123 444 1 4.1499999999999998e-01 5.3706191497716498e+00 3.9622541321948876e+00 1.7929614907298863e+01 0 1 0
2877 444 1 4.1499999999999998e-01 4.0357248474205321e+00 5.7056246331027669e+00 1.8353275691863427e+01 2 -1 0
5172 444 1 4.1499999999999998e-01 2.9405797347883982e+00 5.4646938454868410e+00 2.0024255548627405e+01 -1 1 0
4208 444 1 4.1499999999999998e-01 3.0948681647756056e+00 1.5555025504640283e+00 1.9662559437692192e+01 1 5 0
4209 444 1 4.1499999999999998e-01 4.5329621867427417e+00 1.2711467191244143e+00 2.0040611149482427e+01 1 5 0
3570 444 1 4.1499999999999998e-01 5.3779425578887041e+00 5.0961440748635933e+00 2.3940330227260379e+01 0 1 0
1407 444 1 4.1499999999999998e-01 5.3610464510689084e+00 4.7966305585739661e+00 2.1076463745611782e+01 3 0 0
2512 444 2 -8.2999999999999996e-01 3.2035595906851353e+00 4.4075540274518599e-01 2.2747121545065699e+01 1 1 0
327 444 1 4.1499999999999998e-01 8.2446064597413193e-01 1.0490847115237980e+00 2.0757545984286541e+01 2 1 0
2513 444 1 4.1499999999999998e-01 2.3874958837575240e+00 1.8822843001414280e-01 2.2315262671216711e+01 1 1 0
3568 444 2 -8.2999999999999996e-01 4.7498001256607516e+00 5.7492685116242939e+00 2.4248709033549940e+01 0 1 0
326 444 1 4.1499999999999998e-01 1.9181598241851830e-01 1.3398153362197007e-01 2.1784308933923345e+01 2 1 0
845 444 1 4.1499999999999998e-01 9.6294137275577896e-02 5.2703698604002840e+00 2.8553158632063486e+01 3 4 0
100 444 2 -8.2999999999999996e-01 4.1079063329486319e-02 2.0901273773513949e+00 2.9703917781628544e+01 0 -2 0
2150 444 1 4.1499999999999998e-01 1.1574652611585550e+00 4.1755316578832709e+00 3.2343958966581120e+01 0 -3 0
5541 444 1 4.1499999999999998e-01 9.3938958690021546e-01 1.7249513584978380e+00 2.5991380562005993e+01 -3 0 0
3542 444 1 4.1499999999999998e-01 7.2713565244186373e-01 3.7098569020212774e-01 2.7807163074072434e+01 -1 -1 0
2850 444 1 4.1499999999999998e-01 2.3083902679527739e+00 3.7529331424418855e+00 2.5051692939041637e+01 0 -1 0
2786 444 1 4.1499999999999998e-01 2.1839945658892632e+00 5.4808434815780915e-01 2.9516200827329829e+01 2 -1 0
5540 444 1 4.1499999999999998e-01 1.8880615299082550e+00 5.4517992919494207e-01 2.5983887915089937e+01 -3 0 0
5030 444 1 4.1499999999999998e-01 5.4202222749006195e+00 4.3861277627637335e-01 2.6985347731683412e+01 2 1 0
102 444 1 4.1499999999999998e-01 4.4752955660020421e-01 1.3331800594074734e+00 2.9281945480042253e+01 0 -2 0
3569 444 1 4.1499999999999998e-01 3.9619766841769430e+00 5.2460944615335316e+00 2.4454577958149198e+01 0 1 0
5539 444 2 -8.2999999999999996e-01 1.4514461163826220e+00 1.1616879853583804e+00 2.6571694579207001e+01 -3 0 0
4648 444 2 -8.2999999999999996e-01 2.6145087534528360e+00 5.5507995246247575e+00 2.7229151529980903e+01 2 1 0
1144 444 2 -8.2999999999999996e-01 3.2950683721248036e-01 3.0817066914488116e+00 2.5243149473934960e+01 2 -1 0
5029 444 2 -8.2999999999999996e-01 5.2150366536000998e+00 1.3682602696152091e+00 2.6885916177451318e+01 2 1 0
2787 444 1 4.1499999999999998e-01 2.8142049031835783e+00 1.8104314387437650e+00 3.0065026998498034e+01 2 -1 0
2499 444 1 4.1499999999999998e-01 2.7440719066441317e+00 2.8109184574383650e+00 2.7118181291731563e+01 -1 0 0
4523 444 1 4.1499999999999998e-01 3.4200123465219510e+00 4.0420303000807669e+00 3.1858013983840603e+01 -2 -2 0
4522 444 2 -8.2999999999999996e-01 4.3282757264614578e+00 3.9386863981069689e+00 3.2141932193918407e+01 -2 -2 0
2785 444 2 -8.2999999999999996e-01 2.8870528704732856e+00 8.5628396727354239e-01 3.0088000082949851e+01 2 -1 0
2497 444 2 -8.2999999999999996e-01 3.5101928660570447e+00 3.1328429406963316e+00 2.7593213040921071e+01 -1 0 0
2498 444 1 4.1499999999999998e-01 4.1634332928375715e+00 2.4404856665311869e+00 2.7492464617720817e+01 -1 0 0
2151 444 1 4.1499999999999998e-01 1.1227720786740853e+00 3.5161641237358983e+00 3.0981635063123552e+01 0 -3 0
2149 444 2 -8.2999999999999996e-01 1.7202707708120957e+00 3.9126548642237839e+00 3.1615687916585596e+01 0 -3 0
4650 444 1 4.1499999999999998e-01 2.7965422284152117e+00 4.6237184943777692e+00 2.7382828059829919e+01 2 1 0
5219 444 1 4.1499999999999998e-01 5.2961528288421034e-01 5.3102600911507229e+00 3.3960962871356031e+01 1 2 0
956 444 1 4.1499999999999998e-01 2.4918388787356403e+00 3.7035502974059620e+00 3.4826627738099326e+01 -3 3 0
957 444 1 4.1499999999999998e-01 2.9109481234702761e+00 2.2494933946754592e+00 3.4870917502729007e+01 -3 3 0
1020 444 1 4.1499999999999998e-01 1.0280863068721771e+00 5.7170299729192404e+00 3.6494781437101331e+01 2 -2 0
92 444 1 4.1499999999999998e-01 5.5484647118522350e+00 5.5416634797730877e+00 3.3328250520223698e+01 1 -1 0
4524 444 1 4.1499999999999998e-01 4.3378930277457561e+00 3.1083350907466047e+00 3.2618016293682771e+01 -2 -2 0
5218 444 2 -8.2999999999999996e-01 3.7351645053190730e-01 4.3671727107472735e+00 3.3911440302856093e+01 1 2 0
4265 444 1 4.1499999999999998e-01 3.9005402216118275e+00 2.2453421668368598e+00 3.7649720027203436e+01 1 2 0
1516 444 2 -8.2999999999999996e-01 2.2525051553610367e+00 5.0503428251184213e-01 3.5006296314817881e+01 -2 -1 0
4264 444 2 -8.2999999999999996e-01 4.8364722783843179e+00 2.4161199860162443e+00 3.7755069209578735e+01 1 2 0
4266 444 1 4.1499999999999998e-01 4.9230494854991171e+00 3.3616363954823840e+00 3.7633675949875290e+01 1 2 0
1517 444 1 4.1499999999999998e-01 1.3811040374821084e+00 8.3222455307176613e-01 3.5229541672506393e+01 -2 -1 0
1933 444 2 -8.2999999999999996e-01 4.1246527055702558e+00 4.9739054519891281e+00 3.7494638195039428e+01 2 2 0
955 444 2 -8.2999999999999996e-01 3.2618436868668450e+00 3.1396037981202327e+00 3.4899352961204755e+01 -3 3 0
1934 444 1 4.1499999999999998e-01 3.3805390241038618e+00 4.9253273601456558e+00 3.6894498897545603e+01 2 2 0
4307 444 1 4.1499999999999998e-01 5.0954374396511684e+00 3.3248098294199204e+00 3.4995750241439573e+01 0 1 0
2342 444 1 4.1499999999999998e-01 5.5909402623809044e+00 6.7283894287794388e-01 3.8143301889857227e+01 1 -1 0
6061 444 4 0.0000000000000000e+00 1.6907200000000000e+00 5.8607399999999998e+00 0.0000000000000000e+00 0 0 0
6062 444 4 0.0000000000000000e+00 4.2285000000000004e+00 7.3259299999999996e+00 0.0000000000000000e+00 0 0 0
6063 444 4 -1.5278000000000000e-01 1.6907700000000001e+00 5.8607399999999998e+00 7.1781499999999996e+00 0 0 0
6064 444 4 -1.5278000000000000e-01 4.2285500000000003e+00 7.3259299999999996e+00 7.1781499999999996e+00 0 0 0
6065 444 4 0.0000000000000000e+00 2.5366499999999998e+00 7.3259299999999996e+00 2.3926400000000001e+00 0 0 0
6066 444 4 0.0000000000000000e+00 5.0744199999999999e+00 5.8607399999999998e+00 2.3926400000000001e+00 0 0 0
6067 444 4 0.0000000000000000e+00 8.4509000000000001e-01 7.3259299999999996e+00 4.7824200000000001e+00 0 0 0
6068 444 4 0.0000000000000000e+00 3.3828600000000000e+00 5.8607399999999998e+00 4.7824499999999999e+00 0 0 0
6069 444 4 0.0000000000000000e+00 1.6907200000000000e+00 8.7911099999999998e+00 0.0000000000000000e+00 0 0 0
6070 444 4 0.0000000000000000e+00 4.2285000000000004e+00 1.0256300000000000e+01 0.0000000000000000e+00 0 0 0
6071 444 4 -1.5278000000000000e-01 1.6907700000000001e+00 8.7911099999999998e+00 7.1781899999999998e+00 0 0 0
6072 444 4 -1.5278000000000000e-01 4.2285500000000003e+00 1.0256300000000000e+01 7.1781600000000001e+00 0 0 0
6073 444 4 0.0000000000000000e+00 2.5366499999999998e+00 1.0256300000000000e+01 2.3926400000000001e+00 0 0 0
6074 444 4 0.0000000000000000e+00 5.0744199999999999e+00 8.7911099999999998e+00 2.3926400000000001e+00 0 0 0
6075 444 4 0.0000000000000000e+00 8.4509000000000001e-01 1.0256300000000000e+01 4.7824499999999999e+00 0 0 0
6076 444 4 0.0000000000000000e+00 3.3828700000000000e+00 8.7911099999999998e+00 4.7824400000000002e+00 0 0 0
367 444 2 -8.2999999999999996e-01 2.7558812806889805e+00 1.0577105636635851e+01 9.9979585596378655e+00 1 2 0
3283 444 2 -8.2999999999999996e-01 2.1429149264774656e+00 7.0293763938075911e+00 1.0738309448888362e+01 -1 1 0
3285 444 1 4.1499999999999998e-01 1.9121638292093879e+00 7.1974466522782743e+00 9.8246690778236232e+00 -1 1 0
523 444 2 -8.2999999999999996e-01 3.5596346966992058e+00 9.0556756883797238e+00 1.4562424558691209e+01 -1 -2 0
5906 444 1 4.1499999999999998e-01 2.2135864606909124e+00 8.3604626678116762e+00 1.1996438668466775e+01 3 -2 0
5907 444 1 4.1499999999999998e-01 2.5314998402545519e+00 9.6946445092390547e+00 1.1355513472674579e+01 3 -2 0
5905 444 2 -8.2999999999999996e-01 2.3866434520036361e+00 9.2784429251580214e+00 1.2205233926906354e+01 3 -2 0
368 444 1 4.1499999999999998e-01 2.3911573811203657e+00 1.0484421128074109e+01 9.1178346578466360e+00 1 2 0
5757 444 1 4.1499999999999998e-01 5.3455994198849286e+00 6.2730138686214163e+00 9.2938641506461810e+00 1 0 0
525 444 1 4.1499999999999998e-01 2.8083433878274082e+00 9.2779652419708487e+00 1.5112316027175224e+01 -1 -2 0
524 444 1 4.1499999999999998e-01 3.1942704611814960e+00 8.9643178980763949e+00 1.3682427612830393e+01 -1 -2 0
992 444 1 4.1499999999999998e-01 4.2694664484759226e+00 9.3755355196550649e+00 9.9192650404012497e+00 3 0 0
2583 444 1 4.1499999999999998e-01 1.3054645621610497e+00 1.0918500982074232e+01 1.2527345703736019e+01 1 1 0
5624 444 1 4.1499999999999998e-01 4.8423285180874966e+00 9.1095656946448784e+00 1.5844033733024528e+01 -2 2 0
3284 444 1 4.1499999999999998e-01 2.6277211277140311e+00 6.2043453466821283e+00 1.0715524151952236e+01 -1 1 0
5269 444 2 -8.2999999999999996e-01 5.3948846240327670e+00 7.8941920701867332e+00 1.2635223831651892e+01 1 2 0
5271 444 1 4.1499999999999998e-01 5.2867403942232425e+00 8.4356655960724414e+00 1.1853339454865338e+01 1 2 0
145 444 2 -8.2999999999999996e-01 1.1735700777013842e+00 6.1924970535077977e+00 1.3287833636713456e+01 -4 3 0
5756 444 1 4.1499999999999998e-01 4.7321555094980772e+00 7.3564991912259634e+00 1.0155050208692341e+01 1 0 0
991 444 2 -8.2999999999999996e-01 5.0968269603604188e+00 9.2151069425756660e+00 1.0373103261511506e+01 3 0 0
146 444 1 4.1499999999999998e-01 2.1045122029072507e+00 6.0313231219087227e+00 1.3441462758489346e+01 -4 3 0
5071 444 2 -8.2999999999999996e-01 4.6915065734953734e+00 1.1457160822183875e+01 1.2573635178848644e+01 3 2 0
5073 444 1 4.1499999999999998e-01 3.9512583236302947e+00 1.0940522588224379e+01 1.2891989522866400e+01 3 2 0
369 444 1 4.1499999999999998e-01 3.0383878737850227e+00 1.1490419302366016e+01 1.0045711604168712e+01 1 2 0
5270 444 1 4.1499999999999998e-01 5.0465697470854218e+00 8.4297094017193057e+00 1.3348056087434042e+01 1 2 0
5755 444 2 -8.2999999999999996e-01 5.1260421142452159e+00 6.4853096290836554e+00 1.0201034051704735e+01 1 0 0
2493 444 1 4.1499999999999998e-01 8.2085867093761511e-01 1.0995348208558710e+01 2.2452719020237762e+01 0 3 0
5170 444 2 -8.2999999999999996e-01 2.6546243028894301e+00 6.1989776424582743e+00 1.9480850840020263e+01 -1 1 0
5396 444 1 4.1499999999999998e-01 2.0067331286391492e+00 9.3686388988083245e+00 1.7202784567516424e+01 -1 3 0
5395 444 2 -8.2999999999999996e-01 1.5770364157510182e+00 9.5101060206377230e+00 1.6359232753966040e+01 -1 3 0
5760 444 1 4.1499999999999998e-01 3.2550457098816361e+00 9.8640657210395819e+00 2.1628668426847597e+01 3 2 0
5397 444 1 4.1499999999999998e-01 1.1896473809271197e+00 1.0382502436383522e+01 1.6430549623687824e+01 -1 3 0
4765 444 2 -8.2999999999999996e-01 5.7771964406751930e-01 9.3605430372823140e+00 2.2669098759804285e+01 2 3 0
2958 444 1 4.1499999999999998e-01 2.4911915406921854e+00 9.5041279248923338e+00 1.9277265824259249e+01 3 1 0
2956 444 2 -8.2999999999999996e-01 1.8580136370782567e+00 1.0176775029496255e+01 1.9527991728506525e+01 3 1 0
2957 444 1 4.1499999999999998e-01 1.0709223323523052e+00 9.6878579186771532e+00 1.9768156711755946e+01 3 1 0
454 444 2 -8.2999999999999996e-01 3.3831473741691345e+00 8.3678636233711359e+00 1.8215360676056591e+01 -2 1 0
5758 444 2 -8.2999999999999996e-01 4.0050674535600619e+00 1.0018677455209959e+01 2.2202945951616275e+01 3 2 0
3869 444 1 4.1499999999999998e-01 1.3166646869130005e-01 7.5639148410416013e+00 1.9530188320434650e+01 4 1 0
4767 444 1 4.1499999999999998e-01 1.0460862561214821e+00 8.5271697896036862e+00 2.2717612724384352e+01 2 3 0
5171 444 1 4.1499999999999998e-01 1.7230295667806452e+00 6.0380800932386487e+00 1.9330933837115488e+01 -1 1 0
2876 444 1 4.1499999999999998e-01 5.3871445063574939e+00 6.0683127829582890e+00 1.7775333268842964e+01 2 -1 0
5759 444 1 4.1499999999999998e-01 3.6451781295039529e+00 1.0511756983853811e+01 2.2940227923835913e+01 3 2 0
455 444 1 4.1499999999999998e-01 4.3269610365030315e+00 8.4132930793109217e+00 1.8062442712825479e+01 -2 1 0
2657 444 1 4.1499999999999998e-01 5.1466390861221045e+00 1.0926333227727737e+01 2.1073413387628012e+01 -1 2 0
2238 444 1 4.1499999999999998e-01 3.0003799102648165e+00 8.5565763212204597e+00 2.3867290708987912e+01 -3 2 0
456 444 1 4.1499999999999998e-01 3.2434745623881969e+00 7.5017468613410330e+00 1.8598200908182065e+01 -2 1 0
5625 444 1 4.1499999999999998e-01 5.5077859988118458e+00 9.8851125608003123e+00 1.6960989117309584e+01 -2 2 0
417 444 1 4.1499999999999998e-01 1.3951526467729300e-01 9.2334699035902119e+00 2.4288016035527402e+01 1 0 0
2922 444 1 4.1499999999999998e-01 5.5617085443347385e+00 9.2917592233635506e+00 2.2474749999558824e+01 1 1 0
2236 444 2 -8.2999999999999996e-01 2.7227622260965161e+00 7.6580069373444291e+00 2.3689151756628927e+01 -3 2 0
5623 444 2 -8.2999999999999996e-01 5.5290084232495031e+00 9.0424176668239351e+00 1.6507505795175444e+01 -2 2 0
3171 444 1 4.1499999999999998e-01 2.6194905481549779e-01 1.1599406735239334e+01 1.8313918391363963e+01 -1 1 0
2237 444 1 4.1499999999999998e-01 3.5373022220408838e+00 7.1559556493008225e+00 2.3662665074768860e+01 -3 2 0
3169 444 2 -8.2999999999999996e-01 5.8583033557565145e-01 1.1634164231266476e+01 1.7413848716193531e+01 -1 1 0
2900 444 1 4.1499999999999998e-01 4.3908829089415811e+00 1.1565639948817566e+01 1.9448447052203221e+01 0 1 0
2492 444 1 4.1499999999999998e-01 9.1305743856348653e-01 1.1675313750997107e+01 2.1103259328888313e+01 0 3 0
2066 444 1 4.1499999999999998e-01 2.0239798821636814e+00 6.1815180780322310e+00 3.1555151809228281e+01 1 0 0
4361 444 1 4.1499999999999998e-01 3.3449080366013768e+00 1.0866300030517776e+01 2.8274287184599572e+01 -1 -1 0
4649 444 1 4.1499999999999998e-01 3.4781115146099979e+00 5.9520950206286436e+00 2.7132280047713213e+01 2 1 0
154 444 2 -8.2999999999999996e-01 8.7213850377607105e-01 6.1439875432505104e+00 2.5368265391852752e+01 1 0 0
844 444 2 -8.2999999999999996e-01 5.5152223722018290e-01 5.9623656879618041e+00 2.9032888789215647e+01 3 4 0
2187 444 1 4.1499999999999998e-01 4.8093154562728051e+00 9.0734911517123606e+00 2.8345492953886826e+01 1 -1 0
3535 444 2 -8.2999999999999996e-01 3.7298819691651062e+00 1.0926310018674009e+01 2.5472800168295937e+01 1 0 0
156 444 1 4.1499999999999998e-01 1.2304145916214710e+00 6.9705585855949783e+00 2.5044768231001918e+01 1 0 0
4439 444 1 4.1499999999999998e-01 3.4184662353338173e+00 1.0722800191306206e+01 3.2489780404851558e+01 0 1 0
4360 444 2 -8.2999999999999996e-01 3.2536818806921501e+00 1.1708271693069285e+01 2.8720373917943558e+01 -1 -1 0
3587 444 1 4.1499999999999998e-01 2.0705316631848891e+00 1.1354217241245937e+01 2.5504653582916756e+01 2 0 0
3147 444 1 4.1499999999999998e-01 4.8014407590581456e+00 8.5118417038273151e+00 3.1550348059910110e+01 1 0 0
3146 444 1 4.1499999999999998e-01 3.4461270560958877e+00 8.0855466827290137e+00 3.2073122852016112e+01 1 0 0
3145 444 2 -8.2999999999999996e-01 4.1563379142620329e+00 8.7078712499780853e+00 3.2229794114726552e+01 1 0 0
5643 444 1 4.1499999999999998e-01 6.8959572116165324e-01 1.1163627551105851e+01 3.1839958260536211e+01 2 2 0
3813 444 1 4.1499999999999998e-01 4.3543369023101491e-01 1.0847717986475118e+01 2.9132751969254734e+01 -2 -1 0
2186 444 1 4.1499999999999998e-01 4.0721229919052133e+00 8.5261759721959454e+00 2.7141795075536635e+01 1 -1 0
2065 444 2 -8.2999999999999996e-01 2.0053898329641058e+00 7.1383272659615917e+00 3.1535077292135497e+01 1 0 0
2067 444 1 4.1499999999999998e-01 1.5045353581862839e+00 7.3521651756054096e+00 3.0747898458540185e+01 1 0 0
2185 444 2 -8.2999999999999996e-01 4.1441370375732198e+00 9.3029028399704075e+00 2.7696539824107592e+01 1 -1 0
3811 444 2 -8.2999999999999996e-01 5.5380298374411285e-01 1.1403597118300420e+01 2.9902959625852436e+01 -2 -1 0
5296 444 2 -8.2999999999999996e-01 5.1106558239446862e+00 6.7430262850193223e+00 2.6827570098217866e+01 2 1 0
3536 444 1 4.1499999999999998e-01 4.0876537071704684e+00 1.0366201971035409e+01 2.6161647196178830e+01 1 0 0
846 444 1 4.1499999999999998e-01 1.3378164501947385e+00 6.1358675766709574e+00 2.8515326846273460e+01 3 4 0
5297 444 1 4.1499999999999998e-01 5.1452019507812112e+00 6.5633528445352054e+00 2.5888018724706178e+01 2 1 0
155 444 1 4.1499999999999998e-01 1.4352192035584201e+00 5.9108912755947989e+00 2.6106396929295386e+01 1 0 0
5641 444 2 -8.2999999999999996e-01 3.6640754098423306e-01 1.0814824196764214e+01 3.2670691946805825e+01 2 2 0
5003 444 1 4.1499999999999998e-01 4.1068431941806907e+00 1.0868031242353723e+01 3.6272485886413584e+01 -1 1 0
4438 444 2 -8.2999999999999996e-01 3.1466171666586278e+00 1.1433449405810954e+01 3.3070562810217737e+01 0 1 0
2257 444 2 -8.2999999999999996e-01 2.8333331588418122e+00 8.5644882348841129e+00 3.6670680141738707e+01 -1 1 0
5004 444 1 4.1499999999999998e-01 5.0454245898887153e+00 9.8176873799496001e+00 3.5717744450729796e+01 -1 1 0
5642 444 1 4.1499999999999998e-01 1.1575452094101923e+00 1.0597527944361996e+01 3.3163759621479464e+01 2 2 0
4274 444 1 4.1499999999999998e-01 1.1067392497761170e+00 7.2158489217162467e+00 3.3253583801367263e+01 -1 -1 0
1945 444 2 -8.2999999999999996e-01 1.7253466886081414e+00 1.1107227772907166e+01 3.7550462988184805e+01 3 1 0
3539 444 1 4.1499999999999998e-01 4.8009966309902889e+00 8.3384207874629830e+00 3.3864463115874273e+01 0 0 0
3538 444 2 -8.2999999999999996e-01 4.7314378240531481e+00 8.1119209470272757e+00 3.4791874170569429e+01 0 0 0
5002 444 2 -8.2999999999999996e-01 4.8256417202479360e+00 1.0746996249531026e+01 3.5652073805733210e+01 -1 1 0
4273 444 2 -8.2999999999999996e-01 4.5636403456030877e-01 7.0632723608659393e+00 3.3939123978506522e+01 -1 -1 0
2258 444 1 4.1499999999999998e-01 2.3822138105852284e+00 7.7297050128628264e+00 3.6796619687002462e+01 -1 1 0
1019 444 1 4.1499999999999998e-01 1.4956502466569701e+00 6.4639254481556101e+00 3.5263754904757484e+01 2 -2 0
2259 444 1 4.1499999999999998e-01 3.5768161877047060e+00 8.3527287243604125e+00 3.6106212520658723e+01 -1 1 0
1946 444 1 4.1499999999999998e-01 2.2739753810515988e+00 1.0333461234174401e+01 3.7421917320386662e+01 3 1 0
3540 444 1 4.1499999999999998e-01 4.9924187264028745e+00 7.1919716462063485e+00 3.4834466820784904e+01 0 0 0
1018 444 2 -8.2999999999999996e-01 1.8109282987971471e+00 6.0835023330124240e+00 3.6083577986643135e+01 2 -2 0
1947 444 1 4.1499999999999998e-01 1.8382258937652662e+00 1.1330657454194325e+01 3.8474351613258030e+01 3 1 0
4440 444 1 4.1499999999999998e-01 3.6107991593545798e+00 1.1264244029447472e+01 3.3890402394141425e+01 0 1 0
1935 444 1 4.1499999999999998e-01 4.1551232995688006e+00 5.8915206605954191e+00 3.7765351905399129e+01 2 2 0
6077 444 4 0.0000000000000000e+00 1.6907200000000000e+00 1.1721480000000000e+01 0.0000000000000000e+00 0 0 0
6078 444 4 0.0000000000000000e+00 4.2285000000000004e+00 1.3186669999999999e+01 0.0000000000000000e+00 0 0 0
6079 444 4 -1.5278000000000000e-01 1.6907700000000001e+00 1.1721480000000000e+01 7.1781499999999996e+00 0 0 0
6080 444 4 -1.5278000000000000e-01 4.2285500000000003e+00 1.3186669999999999e+01 7.1781499999999996e+00 0 0 0
6081 444 4 0.0000000000000000e+00 2.5366499999999998e+00 1.3186669999999999e+01 2.3926400000000001e+00 0 0 0
6082 444 4 0.0000000000000000e+00 5.0744199999999999e+00 1.1721480000000000e+01 2.3926400000000001e+00 0 0 0
6083 444 4 0.0000000000000000e+00 8.4509000000000001e-01 1.3186669999999999e+01 4.7824200000000001e+00 0 0 0
6084 444 4 0.0000000000000000e+00 3.3828600000000000e+00 1.1721480000000000e+01 4.7824499999999999e+00 0 0 0
6085 444 4 0.0000000000000000e+00 1.6907200000000000e+00 1.4651850000000000e+01 0.0000000000000000e+00 0 0 0
6087 444 4 -1.5278000000000000e-01 1.6907700000000001e+00 1.4651850000000000e+01 7.1781899999999998e+00 0 0 0
6090 444 4 0.0000000000000000e+00 5.0744199999999999e+00 1.4651850000000000e+01 2.3926400000000001e+00 0 0 0
6092 444 4 0.0000000000000000e+00 3.3828700000000000e+00 1.4651850000000000e+01 4.7824400000000002e+00 0 0 0
6086 444 4 0.0000000000000000e+00 4.2285000000000004e+00 1.6117039999999999e+01 0.0000000000000000e+00 0 0 0
6088 444 4 -1.5278000000000000e-01 4.2285500000000003e+00 1.6117039999999999e+01 7.1781600000000001e+00 0 0 0
6089 444 4 0.0000000000000000e+00 2.5366499999999998e+00 1.6117039999999999e+01 2.3926400000000001e+00 0 0 0
6091 444 4 0.0000000000000000e+00 8.4509000000000001e-01 1.6117039999999999e+01 4.7824499999999999e+00 0 0 0
1792 444 2 -8.2999999999999996e-01 2.5877381300294666e+00 1.4214099811210390e+01 1.0714893641499648e+01 3 0 0
1794 444 1 4.1499999999999998e-01 3.4612946724475409e+00 1.3889090467020580e+01 1.0496946761077069e+01 3 0 0
343 444 2 -8.2999999999999996e-01 9.5652043844319345e-01 1.7249589146027507e+01 1.5304152717013485e+01 2 2 0
345 444 1 4.1499999999999998e-01 6.3068736698695338e-01 1.6352983922521311e+01 1.5382664146266178e+01 2 2 0
481 444 2 -8.2999999999999996e-01 2.9287693735475524e+00 1.5553269957327089e+01 1.3163261871690061e+01 2 0 0
483 444 1 4.1499999999999998e-01 2.6934524749741513e+00 1.5212316518908704e+01 1.2300354813259732e+01 2 0 0
344 444 1 4.1499999999999998e-01 7.8671468225973740e-01 1.7487693719316081e+01 1.4392722157586265e+01 2 2 0
1793 444 1 4.1499999999999998e-01 2.0447304738417627e+00 1.3962321350438287e+01 9.9679113390828054e+00 3 0 0
4693 444 2 -8.2999999999999996e-01 7.1858381547071826e-01 1.4258312250213212e+01 1.4057765255607636e+01 -1 0 0
1320 444 1 4.1499999999999998e-01 3.8177022104976706e+00 1.6852960428105742e+01 1.3577759284679448e+01 2 0 0
4694 444 1 4.1499999999999998e-01 8.9988367410688230e-01 1.3409668721787499e+01 1.3653826663972170e+01 -1 0 0
482 444 1 4.1499999999999998e-01 2.1604806539485732e+00 1.5380256643589671e+01 1.3707348898342145e+01 2 0 0
4152 444 1 4.1499999999999998e-01 4.5702784850614693e+00 1.6045069242307662e+01 1.0295699015344011e+01 1 2 0
2582 444 1 4.1499999999999998e-01 4.0502480664864710e-01 1.1908340683909767e+01 1.1819305235554529e+01 1 1 0
2581 444 2 -8.2999999999999996e-01 8.1917407862063851e-01 1.1731573213799468e+01 1.2663974870837814e+01 1 1 0
4150 444 2 -8.2999999999999996e-01 5.3921689221439379e+00 1.5651460344153511e+01 1.0588616126859918e+01 1 2 0
4431 444 1 4.1499999999999998e-01 4.4355599612788916e+00 1.4310409015015729e+01 1.3448178539363665e+01 1 1 0