LAMMPS data file via write_data, version 11 Aug 2017, timestep = 500000

7164 atoms
4 atom types
4000 bonds
1 bond types
2000 angles
1 angle types

0.0000000000000000e+00 4.5679949999999998e+01 xlo xhi
0.0000000000000000e+00 4.6885919999999999e+01 ylo yhi
0.0000000000000000e+00 6.5000000000000000e+01 zlo zhi

Masses

1 1.0079
2 15.9994
3 22.9898
4 107.868

Bond Coeffs # harmonic

1 450 0.9572

Angle Coeffs # harmonic

1 55 104.52

Atoms # full

6013 444 4 0.0000000000000000e+00 1.6907200000000000e+00 0.0000000000000000e+00 0.0000000000000000e+00 0 0 0
6014 444 4 0.0000000000000000e+00 4.2285000000000004e+00 1.4651900000000000e+00 0.0000000000000000e+00 0 0 0
6015 444 4 -4.1669999999999999e-02 1.6907700000000001e+00 0.0000000000000000e+00 7.1781499999999996e+00 0 0 0
6016 444 4 -4.1669999999999999e-02 4.2285500000000003e+00 1.4651900000000000e+00 7.1781499999999996e+00 0 0 0
6017 444 4 0.0000000000000000e+00 2.5366499999999998e+00 1.4651900000000000e+00 2.3926400000000001e+00 0 0 0
6018 444 4 0.0000000000000000e+00 5.0744199999999999e+00 0.0000000000000000e+00 2.3926400000000001e+00 0 0 0
6019 444 4 0.0000000000000000e+00 8.4509000000000001e-01 1.4651900000000000e+00 4.7824200000000001e+00 0 0 0
6020 444 4 0.0000000000000000e+00 3.3828600000000000e+00 0.0000000000000000e+00 4.7824499999999999e+00 0 0 0
6021 444 4 0.0000000000000000e+00 1.6907200000000000e+00 2.9303699999999999e+00 0.0000000000000000e+00 0 0 0
6022 444 4 0.0000000000000000e+00 4.2285000000000004e+00 4.3955599999999997e+00 0.0000000000000000e+00 0 0 0
6023 444 4 -4.1669999999999999e-02 1.6907700000000001e+00 2.9303699999999999e+00 7.1781899999999998e+00 0 0 0
6024 444 4 -4.1669999999999999e-02 4.2285500000000003e+00 4.3955599999999997e+00 7.1781600000000001e+00 0 0 0
6025 444 4 0.0000000000000000e+00 2.5366499999999998e+00 4.3955599999999997e+00 2.3926400000000001e+00 0 0 0
6026 444 4 0.0000000000000000e+00 5.0744199999999999e+00 2.9303699999999999e+00 2.3926400000000001e+00 0 0 0
6027 444 4 0.0000000000000000e+00 8.4509000000000001e-01 4.3955599999999997e+00 4.7824499999999999e+00 0 0 0
6028 444 4 0.0000000000000000e+00 3.3828700000000000e+00 2.9303699999999999e+00 4.7824400000000002e+00 0 0 0
6029 444 4 0.0000000000000000e+00 1.6907200000000000e+00 5.8607399999999998e+00 0.0000000000000000e+00 0 0 0
6030 444 4 0.0000000000000000e+00 4.2285000000000004e+00 7.3259299999999996e+00 0.0000000000000000e+00 0 0 0
6031 444 4 -4.1669999999999999e-02 1.6907700000000001e+00 5.8607399999999998e+00 7.1781499999999996e+00 0 0 0
6032 444 4 -4.1669999999999999e-02 4.2285500000000003e+00 7.3259299999999996e+00 7.1781499999999996e+00 0 0 0
6033 444 4 0.0000000000000000e+00 2.5366499999999998e+00 7.3259299999999996e+00 2.3926400000000001e+00 0 0 0
6034 444 4 0.0000000000000000e+00 5.0744199999999999e+00 5.8607399999999998e+00 2.3926400000000001e+00 0 0 0
6035 444 4 0.0000000000000000e+00 8.4509000000000001e-01 7.3259299999999996e+00 4.7824200000000001e+00 0 0 0
6036 444 4 0.0000000000000000e+00 3.3828600000000000e+00 5.8607399999999998e+00 4.7824499999999999e+00 0 0 0
6141 444 4 0.0000000000000000e+00 6.7662699999999996e+00 0.0000000000000000e+00 0.0000000000000000e+00 0 0 0
6143 444 4 -4.1669999999999999e-02 6.7663200000000003e+00 0.0000000000000000e+00 7.1781499999999996e+00 0 0 0
6145 444 4 0.0000000000000000e+00 7.6121999999999996e+00 1.4651900000000000e+00 2.3926400000000001e+00 0 0 0
6147 444 4 0.0000000000000000e+00 5.9206399999999997e+00 1.4651900000000000e+00 4.7824200000000001e+00 0 0 0
6149 444 4 0.0000000000000000e+00 6.7662699999999996e+00 2.9303699999999999e+00 0.0000000000000000e+00 0 0 0
6151 444 4 -4.1669999999999999e-02 6.7663200000000003e+00 2.9303699999999999e+00 7.1781899999999998e+00 0 0 0
6153 444 4 0.0000000000000000e+00 7.6121999999999996e+00 4.3955599999999997e+00 2.3926400000000001e+00 0 0 0
6155 444 4 0.0000000000000000e+00 5.9206399999999997e+00 4.3955599999999997e+00 4.7824499999999999e+00 0 0 0
6157 444 4 0.0000000000000000e+00 6.7662699999999996e+00 5.8607399999999998e+00 0.0000000000000000e+00 0 0 0
6159 444 4 -4.1669999999999999e-02 6.7663200000000003e+00 5.8607399999999998e+00 7.1781499999999996e+00 0 0 0
6161 444 4 0.0000000000000000e+00 7.6121999999999996e+00 7.3259299999999996e+00 2.3926400000000001e+00 0 0 0
6163 444 4 0.0000000000000000e+00 5.9206399999999997e+00 7.3259299999999996e+00 4.7824200000000001e+00 0 0 0
6142 444 4 0.0000000000000000e+00 9.3040500000000002e+00 1.4651900000000000e+00 0.0000000000000000e+00 0 0 0
6144 444 4 -4.1669999999999999e-02 9.3041000000000000e+00 1.4651900000000000e+00 7.1781499999999996e+00 0 0 0
6146 444 4 0.0000000000000000e+00 1.0149970000000000e+01 0.0000000000000000e+00 2.3926400000000001e+00 0 0 0
6148 444 4 0.0000000000000000e+00 8.4584100000000007e+00 0.0000000000000000e+00 4.7824499999999999e+00 0 0 0
6150 444 4 0.0000000000000000e+00 9.3040500000000002e+00 4.3955599999999997e+00 0.0000000000000000e+00 0 0 0
6152 444 4 -4.1669999999999999e-02 9.3041000000000000e+00 4.3955599999999997e+00 7.1781600000000001e+00 0 0 0
6154 444 4 0.0000000000000000e+00 1.0149970000000000e+01 2.9303699999999999e+00 2.3926400000000001e+00 0 0 0
6156 444 4 0.0000000000000000e+00 8.4584200000000003e+00 2.9303699999999999e+00 4.7824400000000002e+00 0 0 0
6158 444 4 0.0000000000000000e+00 9.3040500000000002e+00 7.3259299999999996e+00 0.0000000000000000e+00 0 0 0
6160 444 4 -4.1669999999999999e-02 9.3041000000000000e+00 7.3259299999999996e+00 7.1781499999999996e+00 0 0 0
6162 444 4 0.0000000000000000e+00 1.0149970000000000e+01 5.8607399999999998e+00 2.3926400000000001e+00 0 0 0
6164 444 4 0.0000000000000000e+00 8.4584100000000007e+00 5.8607399999999998e+00 4.7824499999999999e+00 0 0 0
6275 444 4 0.0000000000000000e+00 1.0996190000000000e+01 1.4651900000000000e+00 4.7824200000000001e+00 0 0 0
6283 444 4 0.0000000000000000e+00 1.0996190000000000e+01 4.3955599999999997e+00 4.7824499999999999e+00 0 0 0
6291 444 4 0.0000000000000000e+00 1.0996190000000000e+01 7.3259299999999996e+00 4.7824200000000001e+00 0 0 0
867 444 1 4.1499999999999998e-01 1.0293753908794315e+01 4.1840767407566473e+00 1.2650625667583499e+01 -1 4 0
3208 444 2 -8.2999999999999996e-01 6.2674732511347298e+00 2.6712681542768015e+00 1.0548550089000006e+01 -1 4 0
5121 444 1 4.1499999999999998e-01 3.6744922352783078e+00 5.1363309718449051e+00 1.1044233187283297e+01 -4 2 0
4501 444 2 -8.2999999999999996e-01 8.3836109600879265e+00 3.4492805605727761e+00 1.2974917621640595e+01 0 1 0
1182 444 1 4.1499999999999998e-01 1.0238346559531841e+01 3.1561673771177672e+00 1.0718606979209316e+01 1 -4 0
1181 444 1 4.1499999999999998e-01 9.5138274508081651e+00 3.8888020234676213e+00 9.6094568516203029e+00 1 -4 0
1180 444 2 -8.2999999999999996e-01 9.5075850575473133e+00 3.0706745040427417e+00 1.0106307430210185e+01 1 -4 0
4502 444 1 4.1499999999999998e-01 7.6254369375289324e+00 3.2390429102711304e+00 1.2429752862446977e+01 0 1 0
3209 444 1 4.1499999999999998e-01 6.9279639807546545e+00 2.5621970848736342e+00 9.8643808687661085e+00 -1 4 0
4066 444 2 -8.2999999999999996e-01 9.2822410977605472e+00 5.9984347610567967e+00 1.0655856462381250e+01 4 1 0
5119 444 2 -8.2999999999999996e-01 2.8086287487513051e+00 4.7284014689240514e+00 1.1033894773285830e+01 -4 2 0
4443 444 1 4.1499999999999998e-01 5.8798473397271298e+00 5.8273000473665242e+00 1.0979680204304193e+01 5 0 0
5120 444 1 4.1499999999999998e-01 2.3462305389017648e+00 5.1648872816199152e+00 1.0318422690753396e+01 -4 2 0
4442 444 1 4.1499999999999998e-01 5.4634427281621649e+00 5.8042716312146094e+00 9.5243547289441697e+00 5 0 0
4441 444 2 -8.2999999999999996e-01 5.3599520080282135e+00 5.3292473786807895e+00 1.0348899272872243e+01 5 0 0
4067 444 1 4.1499999999999998e-01 9.7296384867557979e+00 6.7489046035940596e+00 1.0264879226391878e+01 4 1 0
101 444 1 4.1499999999999998e-01 8.1958511192837202e-01 1.6922947999444562e+00 1.4172168913285637e+01 -2 -1 0
3845 444 1 4.1499999999999998e-01 9.4805878654109375e+00 9.4833885070287149e-01 9.7390403282946512e+00 5 3 0
865 444 2 -8.2999999999999996e-01 1.1237873483126368e+01 4.0312023033012130e+00 1.2611894153944164e+01 -1 4 0
3965 444 1 4.1499999999999998e-01 1.0888209654037022e+01 2.4288584303866956e+00 1.4938757584074496e+01 0 -4 0
4068 444 1 4.1499999999999998e-01 8.3509023807318759e+00 6.1920669801755022e+00 1.0549333116252885e+01 4 1 0
3210 444 1 4.1499999999999998e-01 6.0854264274531245e+00 3.6109421678725226e+00 1.0558758307974802e+01 -1 4 0
3868 444 2 -8.2999999999999996e-01 5.4482365184415178e+00 9.2860894048405562e-01 1.2943561542877948e+01 4 0 0
206 444 1 4.1499999999999998e-01 2.4589446741612870e+00 7.5414231513364767e+00 8.9466656014439678e+00 -3 -2 0
4541 444 1 4.1499999999999998e-01 8.9290006191719211e+00 2.2091390901320516e+00 1.4061956158355247e+01 2 2 0
2875 444 2 -8.2999999999999996e-01 2.7687345303413173e+00 1.0092366189473463e+00 1.3810439170360645e+01 4 4 0
4503 444 1 4.1499999999999998e-01 8.0575974476325705e+00 4.0967677370092437e+00 1.3599983901305933e+01 0 1 0
4151 444 1 4.1499999999999998e-01 9.3111864310713415e+00 7.0199173361736795e+00 1.2454672598647766e+01 -4 0 0
4292 444 1 4.1499999999999998e-01 2.8923821234093445e+00 5.5365988096808509e+00 1.4517982691019304e+01 -4 2 0
4150 444 2 -8.2999999999999996e-01 9.5914897141283717e+00 7.7353845466305851e+00 1.3025434396260994e+01 -4 0 0
4152 444 1 4.1499999999999998e-01 9.3821526982193024e+00 7.4333752118915211e+00 1.3909289994650367e+01 -4 0 0
3870 444 1 4.1499999999999998e-01 5.7302079129140298e+00 1.6109112022021617e+00 1.2334309289163420e+01 4 0 0
4540 444 2 -8.2999999999999996e-01 9.3160990786824431e+00 1.5975463813680761e+00 1.4688327581057965e+01 2 2 0
1875 444 1 4.1499999999999998e-01 8.2633452957164337e+00 5.5179328231312130e+00 1.5232839452536757e+01 -2 1 0
875 444 1 4.1499999999999998e-01 1.9360370718406315e+00 3.7767057677043794e+00 1.2043907179975193e+01 -3 5 0
4293 444 1 4.1499999999999998e-01 2.6371155015313659e+00 6.2015969174141183e+00 1.3182126487600812e+01 -4 2 0
2876 444 1 4.1499999999999998e-01 3.7231792693427024e+00 1.0123059551752582e+00 1.3882949111829397e+01 4 4 0
1791 444 1 4.1499999999999998e-01 3.0838743422415784e+00 2.9758627509230853e+00 1.4681499927987050e+01 1 3 0
5136 444 1 4.1499999999999998e-01 8.1645146676213198e-01 6.9271782245752780e+00 1.0757192756044347e+01 3 1 0
4542 444 1 4.1499999999999998e-01 9.3758366612008981e+00 7.7032593869697974e-01 1.4210447110509692e+01 2 2 0
1874 444 1 4.1499999999999998e-01 6.8312398184391503e+00 5.6749912498176229e+00 1.5697922656277287e+01 -2 1 0
1790 444 1 4.1499999999999998e-01 2.9679721680693341e+00 3.7212311837975580e+00 1.5994088343240326e+01 1 3 0
1873 444 2 -8.2999999999999996e-01 7.3767571239370691e+00 5.1926820351831315e+00 1.5076616622148959e+01 -2 1 0
366 444 1 4.1499999999999998e-01 6.2255009335438389e+00 4.3605385201035656e+00 1.4116727759283723e+01 0 -1 0
4259 444 1 4.1499999999999998e-01 1.0420359184977622e+01 5.4561949892652200e+00 1.5730616378698921e+01 4 3 0
4258 444 2 -8.2999999999999996e-01 1.0075619524219181e+01 6.2813961920190637e+00 1.5389397980417833e+01 4 3 0
874 444 2 -8.2999999999999996e-01 1.2675101780665248e+00 3.4311048187786275e+00 1.2635400153688451e+01 -3 5 0
365 444 1 4.1499999999999998e-01 4.8041693531936867e+00 3.8415344040016137e+00 1.4165177583149644e+01 0 -1 0
1789 444 2 -8.2999999999999996e-01 2.9503910339792676e+00 3.8508758236296305e+00 1.5045871427703140e+01 1 3 0
876 444 1 4.1499999999999998e-01 1.6958096940303546e+00 3.4021767109489152e+00 1.3490943629215453e+01 -3 5 0
4291 444 2 -8.2999999999999996e-01 2.9729792823086161e+00 6.3741780220835498e+00 1.4061696453537099e+01 -4 2 0
1255 444 2 -8.2999999999999996e-01 2.3815903173213546e-01 7.4485331129491170e+00 1.5859249072730581e+01 0 -1 0
1096 444 2 -8.2999999999999996e-01 5.0267429023965748e+00 6.5624932812517160e+00 1.6093857442906845e+01 1 -1 0
3844 444 2 -8.2999999999999996e-01 9.6460457305920304e+00 6.6024386438935545e-02 1.0071270855790930e+01 5 3 0
1098 444 1 4.1499999999999998e-01 4.2124063270733192e+00 6.2875908590024681e+00 1.5672529900616022e+01 1 -1 0
3869 444 1 4.1499999999999998e-01 6.0554727108816131e+00 2.0461142618168837e-01 1.2790839175425878e+01 4 0 0
3644 444 1 4.1499999999999998e-01 5.8694717181635268e+00 6.7234103204861362e-01 1.5620502654874690e+01 -1 -1 0
4260 444 1 4.1499999999999998e-01 1.0134547144979425e+01 6.8891872502388809e+00 1.6126520550882013e+01 4 3 0
5947 444 2 -8.2999999999999996e-01 7.1470831246047464e+00 7.5806899839948763e+00 1.0959029029578414e+01 1 3 0
364 444 2 -8.2999999999999996e-01 5.6359304368470591e+00 3.7287188276952485e+00 1.3705092274133335e+01 0 -1 0
3645 444 1 4.1499999999999998e-01 5.7473578797304024e+00 2.0474424605328214e+00 1.4999149590021775e+01 -1 -1 0
5745 444 1 4.1499999999999998e-01 3.9157878303927620e+00 1.2165524431152588e+00 1.0658378048141600e+01 -5 0 0
5744 444 1 4.1499999999999998e-01 2.7477035075870826e+00 2.0164947202962002e+00 1.0122125660590090e+01 -5 0 0
5743 444 2 -8.2999999999999996e-01 3.0327003954598259e+00 1.1205387281015489e+00 1.0301769016418245e+01 -5 0 0
2877 444 1 4.1499999999999998e-01 2.5587021613217602e+00 1.5052670998908133e-01 1.3443375474249743e+01 4 4 0
5134 444 2 -8.2999999999999996e-01 3.0787238221769597e-01 6.9280643250363081e+00 1.1568104856667334e+01 3 1 0
3643 444 2 -8.2999999999999996e-01 5.9884795559135178e+00 1.6026670935903102e+00 1.5811718201382620e+01 -1 -1 0
205 444 2 -8.2999999999999996e-01 1.9518596529913887e+00 7.5094544078196117e+00 9.7578837758412025e+00 -3 -2 0
100 444 2 -8.2999999999999996e-01 5.2778137631441902e-02 1.5919368981817728e+00 1.4736232459766729e+01 -2 -1 0
866 444 1 4.1499999999999998e-01 1.1419465455532762e+01 3.4607983207299116e+00 1.3358818847420107e+01 -1 4 0
4938 444 1 4.1499999999999998e-01 2.2248658864327187e-01 7.3419631650750228e+00 2.0671671275649359e+01 -2 -1 0
954 444 1 4.1499999999999998e-01 8.9675510199606769e+00 1.1170387402418358e+00 1.6453625746462873e+01 3 4 0
1866 444 1 4.1499999999999998e-01 5.1271533188738672e-01 2.0743211757773614e+00 1.6739592791404359e+01 1 2 0
4936 444 2 -8.2999999999999996e-01 6.4822553025732232e-01 7.0525138997884689e+00 2.1478639291096023e+01 -2 -1 0
4214 444 1 4.1499999999999998e-01 1.0832510259161490e+01 1.3290672751931534e+00 2.2642502709614341e+01 3 -2 0
2908 444 2 -8.2999999999999996e-01 2.9763050940044309e+00 1.9875715628762866e-01 1.7324670138975531e+01 0 -2 0
4215 444 1 4.1499999999999998e-01 9.8597444714826565e+00 2.1409783518898040e-01 2.2322401007552202e+01 3 -2 0
4937 444 1 4.1499999999999998e-01 1.3935141796580564e+00 6.5298662048403981e+00 2.1182639100278919e+01 -2 -1 0
953 444 1 4.1499999999999998e-01 7.6645120924150278e+00 3.6772324447255023e-01 1.6633934091169039e+01 3 4 0
2835 444 1 4.1499999999999998e-01 1.3404544688590652e+00 6.2649619048530329e+00 1.6572407421500937e+01 -4 0 0
1864 444 2 -8.2999999999999996e-01 1.0432266361297768e+00 2.4809168615913721e+00 1.7424771714970543e+01 1 2 0
649 444 2 -8.2999999999999996e-01 8.5386016029181260e+00 4.8316192893911118e+00 2.3485790161527454e+01 -1 0 0
3072 444 1 4.1499999999999998e-01 5.4449528546518886e+00 2.1211777130318747e+00 1.7391964806846065e+01 -1 -2 0
2833 444 2 -8.2999999999999996e-01 1.8593792610771720e+00 5.5482054992379979e+00 1.6937386153252199e+01 -4 0 0
5652 444 1 4.1499999999999998e-01 1.3075508569240184e+00 1.4710511086654685e+00 2.1572150932134058e+01 -1 -1 0
4140 444 1 4.1499999999999998e-01 6.4664867266591317e+00 7.6804375743034674e+00 1.8291921664569799e+01 2 -2 0
2213 444 1 4.1499999999999998e-01 1.1186551697273169e+01 3.4724820115976609e+00 1.7487888292518928e+01 1 5 0
2373 444 1 4.1499999999999998e-01 1.5773912040843230e+00 4.7861727155780667e+00 2.0728966501673995e+01 -4 0 0
3071 444 1 4.1499999999999998e-01 4.1279810351045150e+00 1.5620596860920259e+00 1.7886805948338960e+01 -1 -2 0
1865 444 1 4.1499999999999998e-01 1.7545493344189886e+00 1.8590773293983172e+00 1.7578290715450070e+01 1 2 0
2834 444 1 4.1499999999999998e-01 1.2548830110831644e+00 4.8067603866986834e+00 1.6970178069131450e+01 -4 0 0
3621 444 1 4.1499999999999998e-01 1.9342547967325749e-01 3.2972631448307581e+00 2.0796729211857055e+01 0 0 0
2981 444 1 4.1499999999999998e-01 3.4050415617115801e+00 6.7839615660823789e+00 1.9604796049850929e+01 4 1 0
5310 444 1 4.1499999999999998e-01 7.0146216936663732e+00 7.9195118605000525e-01 2.0250910969129723e+01 0 0 0
2980 444 2 -8.2999999999999996e-01 3.7746252551785173e+00 7.1150953237903494e+00 1.8786266149119886e+01 4 1 0
5308 444 2 -8.2999999999999996e-01 6.0595290803450945e+00 8.4887973983439324e-01 2.0279010494546466e+01 0 0 0
2982 444 1 4.1499999999999998e-01 3.2146747639799651e+00 6.7458018392099408e+00 1.8103396711694085e+01 4 1 0
1748 444 1 4.1499999999999998e-01 9.2944864869493227e+00 7.7569255478391543e+00 1.8441250054802694e+01 0 0 0
4139 444 1 4.1499999999999998e-01 7.1020667311177776e+00 6.6034474794223152e+00 1.9145166314408979e+01 2 -2 0
4138 444 2 -8.2999999999999996e-01 7.3158391391651936e+00 7.3250372815602516e+00 1.8553691417818754e+01 2 -2 0
4855 444 2 -8.2999999999999996e-01 8.4709917924404543e+00 3.5552071234636649e+00 2.1210782345675611e+01 -3 -5 0
2883 444 1 4.1499999999999998e-01 7.4885409427873020e+00 4.8383084423952614e+00 2.0609936886775536e+01 2 1 0
2881 444 2 -8.2999999999999996e-01 6.8437733834299150e+00 5.5457742119254467e+00 2.0610568455371475e+01 2 1 0
82 444 2 -8.2999999999999996e-01 4.7251362714446801e+00 2.3745370453105927e+00 2.3103782106034267e+01 -1 4 0
4857 444 1 4.1499999999999998e-01 9.0700506905184941e+00 2.8356733617945924e+00 2.1409859610723718e+01 -3 -5 0
1592 444 1 4.1499999999999998e-01 5.3674150302607515e+00 6.9340467748053969e-01 2.2984041380782909e+01 0 1 0
2882 444 1 4.1499999999999998e-01 7.2055368780448639e+00 6.1996445105318543e+00 2.1208743529556870e+01 2 1 0
651 444 1 4.1499999999999998e-01 7.8937789740954818e+00 4.6442166874268604e+00 2.4167931098102745e+01 -1 0 0
4590 444 1 4.1499999999999998e-01 8.3951078622050481e+00 6.4967971191284812e+00 2.2661702030837926e+01 4 4 0
5309 444 1 4.1499999999999998e-01 5.8389806065349461e+00 1.5084885426874963e+00 1.9621357222801489e+01 0 0 0
4856 444 1 4.1499999999999998e-01 8.4906463352276269e+00 4.1071340018674567e+00 2.1992589531279219e+01 -3 -5 0
84 444 1 4.1499999999999998e-01 5.0679544045104521e+00 2.7239670861353922e+00 2.2281221315538712e+01 -1 4 0
5165 444 1 4.1499999999999998e-01 4.5587701367984685e+00 3.6950006030847908e+00 1.9731432228138964e+01 1 2 0
5164 444 2 -8.2999999999999996e-01 4.6948441720626368e+00 4.1709367754414783e+00 2.0550700917440501e+01 1 2 0
3619 444 2 -8.2999999999999996e-01 6.8043445220023746e-01 3.3108599093830149e+00 2.1620664525693517e+01 0 0 0
2214 444 1 4.1499999999999998e-01 1.0102727002245478e+01 4.3557588012772506e+00 1.8068441115859066e+01 1 5 0
5166 444 1 4.1499999999999998e-01 5.5460502345068763e+00 4.5953382553297830e+00 2.0443167006040795e+01 1 2 0
650 444 1 4.1499999999999998e-01 9.3487935844474368e+00 5.0090386495384029e+00 2.3963643203095653e+01 -1 0 0
4588 444 2 -8.2999999999999996e-01 8.2653639606769023e+00 7.3118738678175248e+00 2.2176883250235033e+01 4 4 0
4019 444 1 4.1499999999999998e-01 1.7854565741468966e+00 3.6123217260861460e+00 2.3052205480643863e+01 3 1 0
2372 444 1 4.1499999999999998e-01 3.0658805932653497e+00 4.8839931415975233e+00 2.0470652798345057e+01 -4 0 0
2212 444 2 -8.2999999999999996e-01 1.0723616686603574e+01 4.2975375332948440e+00 1.7342260340511242e+01 1 5 0
3070 444 2 -8.2999999999999996e-01 4.8651082900756428e+00 2.1113833559828281e+00 1.8153487199651217e+01 -1 -2 0
83 444 1 4.1499999999999998e-01 4.0129182829045797e+00 2.9692736542005105e+00 2.3338869030565586e+01 -1 4 0
5650 444 2 -8.2999999999999996e-01 1.5357008974068302e+00 5.8295669180362386e-01 2.1297436769382411e+01 -1 -1 0
2371 444 2 -8.2999999999999996e-01 2.2483087976727991e+00 5.3737016162608056e+00 2.0381243324179305e+01 -4 0 0
952 444 2 -8.2999999999999996e-01 8.5151034025915671e+00 5.1721892543410053e-01 1.7046702733366356e+01 3 4 0
5651 444 1 4.1499999999999998e-01 1.1711673200943908e+00 5.0331491399560990e-01 2.0415958252220857e+01 -1 -1 0
1785 444 1 4.1499999999999998e-01 4.4670232760993427e+00 1.1010483575264952e-01 2.0341575929039180e+01 -2 -2 0
1097 444 1 4.1499999999999998e-01 4.7493092330553370e+00 6.9420702764770521e+00 1.6927634399142541e+01 1 -1 0
2238 444 1 4.1499999999999998e-01 1.2276484151669820e-02 2.9888484838488445e+00 1.8683254099439484e+01 1 -3 0
3609 444 1 4.1499999999999998e-01 5.8122730390878372e+00 1.9768812521413721e+00 2.4351938260398743e+01 -1 2 0
4020 444 1 4.1499999999999998e-01 2.2926025853878054e+00 4.4798848027763665e+00 2.4184474210888744e+01 3 1 0
2010 444 1 4.1499999999999998e-01 1.4749938363029302e+00 6.8070970111917068e+00 2.4295922271125363e+01 6 0 0
4018 444 2 -8.2999999999999996e-01 2.4527439695934019e+00 3.6487387689669748e+00 2.3737503422450914e+01 3 1 0
3620 444 1 4.1499999999999998e-01 1.7524430062757994e-02 3.4866891308622203e+00 2.2288396727448756e+01 0 0 0
4213 444 2 -8.2999999999999996e-01 1.0106541315416294e+01 1.1014184785882768e+00 2.2061660746893896e+01 3 -2 0
4589 444 1 4.1499999999999998e-01 9.0886210307793416e+00 7.4453368933693858e+00 2.1707129665343771e+01 4 4 0
1593 444 1 4.1499999999999998e-01 5.9215136163127120e+00 1.2621421340277550e-02 2.1750589144801395e+01 0 1 0
934 444 2 -8.2999999999999996e-01 5.2374457837074226e+00 1.9569739937356445e+00 3.0400717183705883e+01 -2 1 0
3876 444 1 4.1499999999999998e-01 1.0108130729864566e+01 1.1896450025047167e+00 2.7050848427397259e+01 -2 5 0
1654 444 2 -8.2999999999999996e-01 3.2310825149082389e+00 7.2487834582872939e+00 2.6647751080322450e+01 5 -3 0
805 444 2 -8.2999999999999996e-01 2.3597249437244985e+00 7.3052265107712966e+00 3.0911635804117775e+01 0 1 0
5250 444 1 4.1499999999999998e-01 3.0182750426641869e-01 2.5180601246107437e+00 2.6322346615368275e+01 0 1 0
1656 444 1 4.1499999999999998e-01 3.3920382931933419e+00 6.7476236893857875e+00 2.7447228430133212e+01 5 -3 0
2997 444 1 4.1499999999999998e-01 9.2781846573559186e+00 2.8511062377526635e+00 3.1255583795244416e+01 -3 -1 0
4296 444 1 4.1499999999999998e-01 5.1432213261140758e-01 3.9298604977894489e+00 3.1072521545322427e+01 1 0 0
3697 444 2 -8.2999999999999996e-01 2.8368238862768753e+00 4.1986831315685613e+00 3.1255717320833501e+01 2 -3 0
806 444 1 4.1499999999999998e-01 2.8990555409580239e+00 7.0530608674136595e+00 3.0162124393084870e+01 0 1 0
355 444 2 -8.2999999999999996e-01 1.0594170382589834e+01 5.9328580639600821e+00 2.5350975390560521e+01 -2 0 0
357 444 1 4.1499999999999998e-01 1.0452508765757702e+01 6.8567359631377593e+00 2.5557406682198479e+01 -2 0 0
1655 444 1 4.1499999999999998e-01 4.1041155654687538e+00 7.4650144692878282e+00 2.6320200600233488e+01 5 -3 0
3672 444 1 4.1499999999999998e-01 9.4654363803965182e+00 5.5607096482477916e+00 2.6972125304991600e+01 0 0 0
2995 444 2 -8.2999999999999996e-01 9.5738613801423877e+00 3.7402087358444387e+00 3.1451298177618856e+01 -3 -1 0
2808 444 1 4.1499999999999998e-01 9.9960622733045259e+00 7.3192776477951895e+00 2.8926752163771962e+01 0 0 0
4294 444 2 -8.2999999999999996e-01 1.8035262076686820e-02 4.3488406759127907e+00 3.0369394588395519e+01 1 0 0
936 444 1 4.1499999999999998e-01 4.3397240046493462e+00 2.2536155414562242e+00 3.0550154310129688e+01 -2 1 0
1407 444 1 4.1499999999999998e-01 1.1187848543259710e+01 2.4981743803295481e-01 2.4808375941275724e+01 -2 0 0
382 444 2 -8.2999999999999996e-01 1.4006859467495267e+00 1.4131342893941599e+00 2.9268499205161220e+01 1 1 0
4630 444 2 -8.2999999999999996e-01 1.0356851567652960e+00 2.6736654249896574e+00 3.2284012636994305e+01 0 2 0
384 444 1 4.1499999999999998e-01 7.7172491887515449e-01 8.0428453936183986e-01 2.8881275195505886e+01 1 1 0
2009 444 1 4.1499999999999998e-01 2.0245006306716475e+00 6.3160815125132386e+00 2.5618359997321718e+01 6 0 0
935 444 1 4.1499999999999998e-01 5.1445441627677972e+00 1.0531307038328106e+00 3.0099603189686523e+01 -2 1 0
807 444 1 4.1499999999999998e-01 2.1398424629456194e+00 6.4771696989586687e+00 3.1338491777183222e+01 0 1 0
383 444 1 4.1499999999999998e-01 1.6306320794048825e+00 1.0180287809508393e+00 3.0109480149680987e+01 1 1 0
1406 444 1 4.1499999999999998e-01 1.1109547661367381e+01 1.6983366324372591e+00 2.5241454043962523e+01 -2 0 0
3698 444 1 4.1499999999999998e-01 2.7186513459151405e+00 4.1917563358505534e+00 3.0305865008820209e+01 2 -3 0
4632 444 1 4.1499999999999998e-01 1.1099796875644372e+00 1.7203111928232258e+00 3.2241258779206667e+01 0 2 0
844 444 2 -8.2999999999999996e-01 8.7612578725397015e+00 1.1584724020814825e+00 3.0356279591391480e+01 0 3 0
3257 444 1 4.1499999999999998e-01 5.2118381812056036e+00 4.4341654585786330e+00 3.1241297239719522e+01 8 2 0
2622 444 1 4.1499999999999998e-01 1.1191289800641730e+01 3.5296484038628919e+00 2.7146707587724592e+01 -1 2 0
3256 444 2 -8.2999999999999996e-01 5.6720738236401997e+00 4.5803906480357472e+00 3.0414838997716643e+01 8 2 0
2674 444 2 -8.2999999999999996e-01 8.2272505248265215e+00 5.5400074592690354e+00 3.0024141093419178e+01 1 0 0
2807 444 1 4.1499999999999998e-01 8.6131904595428015e+00 7.2830569011964625e+00 2.9541771656826182e+01 0 0 0
4813 444 2 -8.2999999999999996e-01 6.7789410899610525e+00 4.2151149251329443e+00 2.5596959502042747e+01 -2 -1 0
4814 444 1 4.1499999999999998e-01 6.7502473252473019e+00 3.3019815330438886e+00 2.5311309426876790e+01 -2 -1 0
3699 444 1 4.1499999999999998e-01 2.3210022164551702e+00 3.4549318312738566e+00 3.1567158568843922e+01 2 -3 0
2675 444 1 4.1499999999999998e-01 8.3121843324334641e+00 5.3176165014704448e+00 2.9097016187792860e+01 1 0 0
989 444 1 4.1499999999999998e-01 7.2189636607480958e+00 4.6579411627936335e-01 3.2004303309966460e+01 3 0 0
2996 444 1 4.1499999999999998e-01 8.9147519593779272e+00 4.3062146427085297e+00 3.1049496614657620e+01 -3 -1 0
2008 444 2 -8.2999999999999996e-01 1.6401854287134972e+00 6.0086633685283868e+00 2.4797367705556539e+01 6 0 0
3607 444 2 -8.2999999999999996e-01 6.5033622713618238e+00 1.6816449573790164e+00 2.4944781687193242e+01 -1 2 0
3608 444 1 4.1499999999999998e-01 6.4779743006149895e+00 7.2657463231776076e-01 2.4886232749247448e+01 -1 2 0
4815 444 1 4.1499999999999998e-01 5.8612204889321458e+00 4.4558963120370025e+00 2.5723628750097586e+01 -2 -1 0
3874 444 2 -8.2999999999999996e-01 1.0052848003678333e+01 2.1407033297239257e+00 2.6957769020357841e+01 -2 5 0
782 444 1 4.1499999999999998e-01 3.4219183402727449e+00 3.2658665294032851e+00 2.7905682414024312e+01 -1 0 0
4438 444 2 -8.2999999999999996e-01 3.7617883915799291e+00 2.8709838668860481e+00 2.6059678116337619e+01 -3 3 0
5492 444 1 4.1499999999999998e-01 3.7634034752703447e+00 5.2283339574558330e+00 2.8414975313836070e+01 2 0 0
5493 444 1 4.1499999999999998e-01 4.6186288932846624e+00 5.8285926162496109e+00 2.9510499976208315e+01 2 0 0
4439 444 1 4.1499999999999998e-01 3.9422057361587215e+00 1.9309882659813633e+00 2.6069161964113619e+01 -3 3 0
2769 444 1 4.1499999999999998e-01 6.9573090795920152e+00 1.6428310159667339e+00 2.6973190485288949e+01 6 5 0
3671 444 1 4.1499999999999998e-01 8.0646961308259506e+00 5.1703550383030015e+00 2.6550882041070459e+01 0 0 0
783 444 1 4.1499999999999998e-01 2.0954920159559158e+00 3.0601203444541571e+00 2.8605794669975772e+01 -1 0 0
781 444 2 -8.2999999999999996e-01 2.7558108345387193e+00 3.7265601093407401e+00 2.8415873550984493e+01 -1 0 0
3670 444 2 -8.2999999999999996e-01 8.6098609233034651e+00 5.3152337327360408e+00 2.7324211229715591e+01 0 0 0
845 444 1 4.1499999999999998e-01 8.3561757140451345e+00 1.5070058965112241e+00 2.9562135263055428e+01 0 3 0
2768 444 1 4.1499999999999998e-01 7.0674743038116619e+00 4.0581425832564455e-01 2.7838955271292114e+01 6 5 0
2767 444 2 -8.2999999999999996e-01 7.3239730110463155e+00 1.3271461844148276e+00 2.7799103786486757e+01 6 5 0
2676 444 1 4.1499999999999998e-01 7.3522099811654860e+00 5.2356414150775068e+00 3.0264759577647112e+01 1 0 0
5491 444 2 -8.2999999999999996e-01 4.0001261444259164e+00 6.0633201022699792e+00 2.8818698546565781e+01 2 0 0
4440 444 1 4.1499999999999998e-01 3.4675577699628759e+00 3.0498794053539577e+00 2.5166561607262828e+01 -3 3 0
3875 444 1 4.1499999999999998e-01 9.1881625409763217e+00 2.3655938431492576e+00 2.7301244240176832e+01 -2 5 0
846 444 1 4.1499999999999998e-01 9.6803745874899647e+00 1.0315602583266861e+00 3.0121013218660696e+01 0 3 0
3258 444 1 4.1499999999999998e-01 5.6832950758629766e+00 3.7220785953581137e+00 2.9991274843381699e+01 8 2 0
5349 444 1 4.1499999999999998e-01 4.3263556034653727e-01 7.7708404931780564e+00 2.8056511771261789e+01 1 -2 0
4956 444 1 4.1499999999999998e-01 2.8008347252315393e+00 6.9203632562191100e+00 3.4413972967134804e+01 3 -1 0
911 444 1 4.1499999999999998e-01 1.7761542043073579e+00 4.7322073371889086e+00 3.3273854124115402e+01 0 1 0
912 444 1 4.1499999999999998e-01 1.1082636678475508e+00 6.0881808351968312e+00 3.3358431842678023e+01 0 1 0
4631 444 1 4.1499999999999998e-01 3.0260366139591222e-01 2.8308047716696390e+00 3.2879101389823042e+01 0 2 0
5832 444 1 4.1499999999999998e-01 7.8398005254521195e+00 7.4970494533373140e+00 3.5412835576216466e+01 0 0 0
910 444 2 -8.2999999999999996e-01 1.9622560273341738e+00 5.6599793794301236e+00 3.3418205038749512e+01 0 1 0
4955 444 1 4.1499999999999998e-01 3.1368404668493310e+00 6.7854101807767773e+00 3.5883933313662617e+01 3 -1 0
4136 444 1 4.1499999999999998e-01 1.1062193070412741e+01 4.7556372086036758e+00 3.2510008155754541e+01 0 1 0
4954 444 2 -8.2999999999999996e-01 3.0934730563494308e+00 7.4248549439174303e+00 3.5172974991870895e+01 3 -1 0
6037 444 4 0.0000000000000000e+00 1.6907200000000000e+00 8.7911099999999998e+00 0.0000000000000000e+00 0 0 0
6038 444 4 0.0000000000000000e+00 4.2285000000000004e+00 1.0256300000000000e+01 0.0000000000000000e+00 0 0 0
6039 444 4 -4.1669999999999999e-02 1.6907700000000001e+00 8.7911099999999998e+00 7.1781899999999998e+00 0 0 0
6040 444 4 -4.1669999999999999e-02 4.2285500000000003e+00 1.0256300000000000e+01 7.1781600000000001e+00 0 0 0