LAMMPS data file via write_data, version 11 Aug 2017, timestep = 5000000

7176 atoms
4 atom types
4000 bonds
1 bond types
2000 angles
1 angle types

0.0000000000000000e+00 4.5679949999999998e+01 xlo xhi
0.0000000000000000e+00 4.6885919999999999e+01 ylo yhi
0.0000000000000000e+00 6.5000000000000000e+01 zlo zhi

Masses

1 1.0079
2 15.9994
3 22.9898
4 107.868

Bond Coeffs # harmonic

1 450 0.9572

Angle Coeffs # harmonic

1 55 104.52

Atoms # full

6025 444 4 0.0000000000000000e+00 1.6907200000000000e+00 0.0000000000000000e+00 0.0000000000000000e+00 0 0 0
6026 444 4 0.0000000000000000e+00 4.2285000000000004e+00 1.4651900000000000e+00 0.0000000000000000e+00 0 0 0
6027 444 4 -8.3330000000000001e-02 1.6907700000000001e+00 0.0000000000000000e+00 7.1781499999999996e+00 0 0 0
6028 444 4 -8.3330000000000001e-02 4.2285500000000003e+00 1.4651900000000000e+00 7.1781499999999996e+00 0 0 0
6029 444 4 0.0000000000000000e+00 2.5366499999999998e+00 1.4651900000000000e+00 2.3926400000000001e+00 0 0 0
6030 444 4 0.0000000000000000e+00 5.0744199999999999e+00 0.0000000000000000e+00 2.3926400000000001e+00 0 0 0
6031 444 4 0.0000000000000000e+00 8.4509000000000001e-01 1.4651900000000000e+00 4.7824200000000001e+00 0 0 0
6032 444 4 0.0000000000000000e+00 3.3828600000000000e+00 0.0000000000000000e+00 4.7824499999999999e+00 0 0 0
6033 444 4 0.0000000000000000e+00 1.6907200000000000e+00 2.9303699999999999e+00 0.0000000000000000e+00 0 0 0
6034 444 4 0.0000000000000000e+00 4.2285000000000004e+00 4.3955599999999997e+00 0.0000000000000000e+00 0 0 0
6035 444 4 -8.3330000000000001e-02 1.6907700000000001e+00 2.9303699999999999e+00 7.1781899999999998e+00 0 0 0
6036 444 4 -8.3330000000000001e-02 4.2285500000000003e+00 4.3955599999999997e+00 7.1781600000000001e+00 0 0 0
6037 444 4 0.0000000000000000e+00 2.5366499999999998e+00 4.3955599999999997e+00 2.3926400000000001e+00 0 0 0
6038 444 4 0.0000000000000000e+00 5.0744199999999999e+00 2.9303699999999999e+00 2.3926400000000001e+00 0 0 0
6039 444 4 0.0000000000000000e+00 8.4509000000000001e-01 4.3955599999999997e+00 4.7824499999999999e+00 0 0 0
6040 444 4 0.0000000000000000e+00 3.3828700000000000e+00 2.9303699999999999e+00 4.7824400000000002e+00 0 0 0
6041 444 4 0.0000000000000000e+00 1.6907200000000000e+00 5.8607399999999998e+00 0.0000000000000000e+00 0 0 0
6042 444 4 0.0000000000000000e+00 4.2285000000000004e+00 7.3259299999999996e+00 0.0000000000000000e+00 0 0 0
6043 444 4 -8.3330000000000001e-02 1.6907700000000001e+00 5.8607399999999998e+00 7.1781499999999996e+00 0 0 0
6044 444 4 -8.3330000000000001e-02 4.2285500000000003e+00 7.3259299999999996e+00 7.1781499999999996e+00 0 0 0
6045 444 4 0.0000000000000000e+00 2.5366499999999998e+00 7.3259299999999996e+00 2.3926400000000001e+00 0 0 0
6046 444 4 0.0000000000000000e+00 5.0744199999999999e+00 5.8607399999999998e+00 2.3926400000000001e+00 0 0 0
6047 444 4 0.0000000000000000e+00 8.4509000000000001e-01 7.3259299999999996e+00 4.7824200000000001e+00 0 0 0
6048 444 4 0.0000000000000000e+00 3.3828600000000000e+00 5.8607399999999998e+00 4.7824499999999999e+00 0 0 0
6153 444 4 0.0000000000000000e+00 6.7662699999999996e+00 0.0000000000000000e+00 0.0000000000000000e+00 0 0 0
6155 444 4 -8.3330000000000001e-02 6.7663200000000003e+00 0.0000000000000000e+00 7.1781499999999996e+00 0 0 0
6157 444 4 0.0000000000000000e+00 7.6121999999999996e+00 1.4651900000000000e+00 2.3926400000000001e+00 0 0 0
6159 444 4 0.0000000000000000e+00 5.9206399999999997e+00 1.4651900000000000e+00 4.7824200000000001e+00 0 0 0
6161 444 4 0.0000000000000000e+00 6.7662699999999996e+00 2.9303699999999999e+00 0.0000000000000000e+00 0 0 0
6163 444 4 -8.3330000000000001e-02 6.7663200000000003e+00 2.9303699999999999e+00 7.1781899999999998e+00 0 0 0
6165 444 4 0.0000000000000000e+00 7.6121999999999996e+00 4.3955599999999997e+00 2.3926400000000001e+00 0 0 0
6167 444 4 0.0000000000000000e+00 5.9206399999999997e+00 4.3955599999999997e+00 4.7824499999999999e+00 0 0 0
6169 444 4 0.0000000000000000e+00 6.7662699999999996e+00 5.8607399999999998e+00 0.0000000000000000e+00 0 0 0
6171 444 4 -8.3330000000000001e-02 6.7663200000000003e+00 5.8607399999999998e+00 7.1781499999999996e+00 0 0 0
6173 444 4 0.0000000000000000e+00 7.6121999999999996e+00 7.3259299999999996e+00 2.3926400000000001e+00 0 0 0
6175 444 4 0.0000000000000000e+00 5.9206399999999997e+00 7.3259299999999996e+00 4.7824200000000001e+00 0 0 0
6154 444 4 0.0000000000000000e+00 9.3040500000000002e+00 1.4651900000000000e+00 0.0000000000000000e+00 0 0 0
6156 444 4 -8.3330000000000001e-02 9.3041000000000000e+00 1.4651900000000000e+00 7.1781499999999996e+00 0 0 0
6158 444 4 0.0000000000000000e+00 1.0149970000000000e+01 0.0000000000000000e+00 2.3926400000000001e+00 0 0 0
6160 444 4 0.0000000000000000e+00 8.4584100000000007e+00 0.0000000000000000e+00 4.7824499999999999e+00 0 0 0
6162 444 4 0.0000000000000000e+00 9.3040500000000002e+00 4.3955599999999997e+00 0.0000000000000000e+00 0 0 0
6164 444 4 -8.3330000000000001e-02 9.3041000000000000e+00 4.3955599999999997e+00 7.1781600000000001e+00 0 0 0
6166 444 4 0.0000000000000000e+00 1.0149970000000000e+01 2.9303699999999999e+00 2.3926400000000001e+00 0 0 0
6168 444 4 0.0000000000000000e+00 8.4584200000000003e+00 2.9303699999999999e+00 4.7824400000000002e+00 0 0 0
6170 444 4 0.0000000000000000e+00 9.3040500000000002e+00 7.3259299999999996e+00 0.0000000000000000e+00 0 0 0
6172 444 4 -8.3330000000000001e-02 9.3041000000000000e+00 7.3259299999999996e+00 7.1781499999999996e+00 0 0 0
6174 444 4 0.0000000000000000e+00 1.0149970000000000e+01 5.8607399999999998e+00 2.3926400000000001e+00 0 0 0
6176 444 4 0.0000000000000000e+00 8.4584100000000007e+00 5.8607399999999998e+00 4.7824499999999999e+00 0 0 0
6287 444 4 0.0000000000000000e+00 1.0996190000000000e+01 1.4651900000000000e+00 4.7824200000000001e+00 0 0 0
6295 444 4 0.0000000000000000e+00 1.0996190000000000e+01 4.3955599999999997e+00 4.7824499999999999e+00 0 0 0
6303 444 4 0.0000000000000000e+00 1.0996190000000000e+01 7.3259299999999996e+00 4.7824200000000001e+00 0 0 0
3872 444 1 4.1499999999999998e-01 8.2669504649552064e+00 5.8309835055737356e+00 1.4653570278186487e+01 0 0 0
3871 444 2 -8.2999999999999996e-01 8.6868098441856159e+00 5.6726797114651157e+00 1.3808058569229029e+01 0 0 0
6014 444 3 1.0000000000000000e+00 7.2646937404875027e+00 4.4429118828369951e+00 1.1917051863304055e+01 1 4 0
3873 444 1 4.1499999999999998e-01 9.3550262331779823e+00 6.3547017362473914e+00 1.3740495411237097e+01 0 0 0
5112 444 1 4.1499999999999998e-01 4.2576498386991499e+00 5.5350903014493289e+00 1.2249864547764295e+01 3 -2 0
5126 444 1 4.1499999999999998e-01 1.8020377317120819e+00 2.6141062899543321e+00 1.4316043291326949e+01 -1 -1 0
519 444 1 4.1499999999999998e-01 9.4849156990166250e+00 4.1968353855021565e+00 9.7644000124176848e+00 -1 7 0
5127 444 1 4.1499999999999998e-01 6.1647915449354973e-01 3.5553068762899183e+00 1.4338118616466675e+01 -1 -1 0
4145 444 1 4.1499999999999998e-01 6.8513778029238983e+00 6.3796489649225379e+00 9.4922181276227384e+00 1 -2 0
4346 444 1 4.1499999999999998e-01 2.0765973990011632e-01 6.6124231369245434e+00 9.8455945654261683e+00 1 -1 0
5125 444 2 -8.2999999999999996e-01 1.1774449785470795e+00 3.0309703532751087e+00 1.4909625695712373e+01 -1 -1 0
4382 444 1 4.1499999999999998e-01 2.7331426951369364e+00 3.7600399519459162e+00 9.7048510094453242e+00 -5 4 0
4381 444 2 -8.2999999999999996e-01 2.8179483271145855e+00 3.5982665664457119e+00 1.0644462344699951e+01 -5 4 0
4383 444 1 4.1499999999999998e-01 1.9198399466411706e+00 3.6245573002368983e+00 1.0974527333407694e+01 -5 4 0
5110 444 2 -8.2999999999999996e-01 4.5049916404135031e+00 4.6912322898322358e+00 1.2627962059484798e+01 3 -2 0
4144 444 2 -8.2999999999999996e-01 6.6087969051173419e+00 6.0373808110838079e+00 1.0352589542289405e+01 1 -2 0
4146 444 1 4.1499999999999998e-01 5.9153161276663955e+00 6.6227771045208277e+00 1.0656937882587709e+01 1 -2 0
518 444 1 4.1499999999999998e-01 9.7026319712860865e+00 3.2123237688662685e+00 1.0893661338777610e+01 -1 7 0
517 444 2 -8.2999999999999996e-01 9.1927249816468191e+00 3.9852046420625946e+00 1.0651005272870023e+01 -1 7 0
5994 444 1 4.1499999999999998e-01 9.9916180289649947e+00 4.2248358642419195e+00 1.4886261195656461e+01 2 -1 0
5993 444 1 4.1499999999999998e-01 1.0531166348542426e+01 3.2264931280447740e+00 1.5888306434030746e+01 2 -1 0
5992 444 2 -8.2999999999999996e-01 1.0188892168467667e+01 4.1175372680610227e+00 1.5816746062782698e+01 2 -1 0
3022 444 2 -8.2999999999999996e-01 3.4290202245972203e+00 6.8135719214256261e+00 1.5906123030233093e+01 -2 -3 0
3463 444 2 -8.2999999999999996e-01 2.8992789419910403e-01 2.6437043222835754e+00 1.1024491553381703e+01 -1 -2 0
3023 444 1 4.1499999999999998e-01 2.4800476658521040e+00 6.7770716414206476e+00 1.5786327476608562e+01 -2 -3 0
3917 444 1 4.1499999999999998e-01 1.0618300939671570e+01 9.3718043074742519e-01 1.3494940159477718e+01 2 1 0
4181 444 1 4.1499999999999998e-01 4.7202229472238155e+00 3.3949940643631944e+00 1.0348847909717769e+01 3 2 0
4182 444 1 4.1499999999999998e-01 6.0932362354345573e+00 3.3347120437383215e+00 9.7139497135751256e+00 3 2 0
2279 444 1 4.1499999999999998e-01 8.8098737333910080e+00 2.4458155089180860e+00 1.3014828987532708e+01 2 -2 0
2278 444 2 -8.2999999999999996e-01 7.8569383344056316e+00 2.5159399403694720e+00 1.3071648296999680e+01 2 -2 0
2280 444 1 4.1499999999999998e-01 7.6590156207149445e+00 2.3546693810209867e+00 1.3994172107566479e+01 2 -2 0
4180 444 2 -8.2999999999999996e-01 5.6373581424218031e+00 3.2040600505818206e+00 1.0545416594724674e+01 3 2 0
662 444 1 4.1499999999999998e-01 8.2497218054169021e+00 1.4860431092731761e+00 1.6194100134030673e+01 0 3 0
661 444 2 -8.2999999999999996e-01 7.4015342310052477e+00 1.7454780119437181e+00 1.5834233183365996e+01 0 3 0
5326 444 2 -8.2999999999999996e-01 2.5175053865275898e+00 7.0558201420942517e+00 1.0700478010100023e+01 4 3 0
3916 444 2 -8.2999999999999996e-01 1.0433024601882575e+01 1.8526360563469384e+00 1.3285546676006337e+01 2 1 0
5111 444 1 4.1499999999999998e-01 4.0815404178859129e+00 4.0428276499934341e+00 1.2065385057341317e+01 3 -2 0
3918 444 1 4.1499999999999998e-01 1.1065324084874417e+01 2.0752476163186278e+00 1.2602265142398894e+01 2 1 0
1162 444 2 -8.2999999999999996e-01 4.3087185674019279e+00 3.9388463326947734e+00 1.5325303719503724e+01 0 -1 0
5975 444 1 4.1499999999999998e-01 9.6119990814237894e+00 7.0145259418198469e+00 1.0112717767289061e+01 0 2 0
2417 444 1 4.1499999999999998e-01 2.8442708687589655e+00 5.1471770731691957e-01 1.3472577795088219e+01 3 1 0
1163 444 1 4.1499999999999998e-01 3.4897020073324585e+00 3.5355392651168280e+00 1.5037575231897613e+01 0 -1 0
1164 444 1 4.1499999999999998e-01 4.5385182957542582e+00 4.5445066986968961e+00 1.4620604886494505e+01 0 -1 0
5658 444 1 4.1499999999999998e-01 1.1227197855457000e+01 5.5758645142011751e+00 1.1094598972965633e+01 0 -1 0
5946 444 1 4.1499999999999998e-01 6.6962162212485605e+00 6.5190541403997777e+00 1.5870291203727817e+01 -1 3 0
1221 444 1 4.1499999999999998e-01 2.8749018801789539e-01 1.3672245870617761e-01 1.4599353748880606e+01 -1 -1 0
5974 444 2 -8.2999999999999996e-01 1.0490618624471264e+01 7.3255001845958398e+00 1.0330788286304990e+01 0 2 0
2428 444 2 -8.2999999999999996e-01 3.1937418132771169e+00 7.2717508257640873e-01 1.0414252144168865e+01 2 -3 0
5328 444 1 4.1499999999999998e-01 2.4208394000861535e+00 6.7516377825967844e+00 9.7980586470743116e+00 4 3 0
2430 444 1 4.1499999999999998e-01 3.0766067077937085e+00 1.6568399990136342e+00 1.0218715208314112e+01 2 -3 0
3464 444 1 4.1499999999999998e-01 2.8072647052899063e-01 2.3618170143190214e+00 1.0109785629173670e+01 -1 -2 0
5327 444 1 4.1499999999999998e-01 3.4230805022119797e+00 7.3610719378667868e+00 1.0755136573845126e+01 4 3 0
5944 444 2 -8.2999999999999996e-01 6.6804514308019467e+00 5.5681235609284476e+00 1.5762058203975958e+01 -1 3 0
1219 444 2 -8.2999999999999996e-01 1.7434946172119317e-01 5.7972646744645118e-01 1.5440292652113691e+01 -1 -1 0
2416 444 2 -8.2999999999999996e-01 2.5782992305719565e+00 1.4295820021086623e+00 1.3380298595450839e+01 3 1 0
3852 444 1 4.1499999999999998e-01 6.4651376685771460e+00 1.2826041164950019e+00 1.2709944234349555e+01 0 1 0
3449 444 1 4.1499999999999998e-01 7.8121536832387406e-01 5.5757321875635997e+00 1.1985872511406800e+01 2 -2 0
1220 444 1 4.1499999999999998e-01 5.0740350126296874e-01 1.4647818212177641e+00 1.5292023418178575e+01 -1 -1 0
3450 444 1 4.1499999999999998e-01 2.6645255953361868e-02 4.3548853094364262e+00 1.2467590060530435e+01 2 -2 0
1000 444 2 -8.2999999999999996e-01 9.8044497456586530e+00 7.8358452120383770e-01 1.6228975856170752e+01 -1 -1 0
2418 444 1 4.1499999999999998e-01 2.7819570670819260e+00 1.6481551441541544e+00 1.2470913323405636e+01 3 1 0
2429 444 1 4.1499999999999998e-01 4.0065738730253333e+00 4.8874159948753837e-01 9.9685105055479859e+00 2 -3 0
3850 444 2 -8.2999999999999996e-01 6.1980799122643164e+00 3.6392431513163265e-01 1.2679295737587239e+01 0 1 0
5945 444 1 4.1499999999999998e-01 5.7500090211481494e+00 5.3443440005343046e+00 1.5741283066643629e+01 -1 3 0
3448 444 2 -8.2999999999999996e-01 4.4123416479674848e-01 5.1598184693929960e+00 1.2778122892615011e+01 2 -2 0
3074 444 1 4.1499999999999998e-01 1.0543344372489869e+01 7.8096078186802629e+00 1.2232235741055145e+01 5 -3 0
4467 444 1 4.1499999999999998e-01 1.0967974932932989e+01 1.5788697427966913e+00 1.0312520187468030e+01 -3 0 0
5256 444 1 4.1499999999999998e-01 4.2054654123899553e+00 7.7786645627415645e+00 1.4797908358152611e+01 5 -6 0
3024 444 1 4.1499999999999998e-01 3.5841252781885991e+00 6.3583093682449414e+00 1.6733716344377189e+01 -2 -3 0
3695 444 1 4.1499999999999998e-01 3.8881633060424020e-01 6.1944883325486200e-01 2.3990810786671123e+01 -1 0 0
663 444 1 4.1499999999999998e-01 7.0367055145485278e+00 2.3432755049769449e+00 1.6486743853912319e+01 0 3 0
1873 444 2 -8.2999999999999996e-01 4.0000424242944277e-01 4.0304553228505329e+00 1.7458925466702041e+01 1 0 0
4701 444 1 4.1499999999999998e-01 6.3356254586163230e+00 3.2096990464185671e-01 1.6861357662265910e+01 4 3 0
3155 444 1 4.1499999999999998e-01 1.1005629375406019e+00 4.2852330945463697e+00 1.9181637580642125e+01 0 -1 0
432 444 1 4.1499999999999998e-01 6.1481878801237553e+00 5.2821430242530154e-01 1.9312868534336232e+01 0 -5 0
2829 444 1 4.1499999999999998e-01 2.7706958107608064e+00 2.9837477058460787e-01 1.7706532518657902e+01 -2 0 0
3694 444 2 -8.2999999999999996e-01 7.2267398950451245e-01 1.1220791644751555e+00 2.3247753809917526e+01 -1 0 0
430 444 2 -8.2999999999999996e-01 6.9038442974082255e+00 1.1142065436088555e+00 1.9270109814961600e+01 0 -5 0
3772 444 2 -8.2999999999999996e-01 1.1334059390857302e+01 2.2057888769875289e+00 2.0298070986834880e+01 2 -2 0
871 444 2 -8.2999999999999996e-01 3.3137471954475330e+00 1.9299255197684080e+00 1.9315154608248445e+01 -2 2 0
873 444 1 4.1499999999999998e-01 3.5682217862356223e+00 1.3171564573818930e+00 2.0005073955186997e+01 -2 2 0
4512 444 1 4.1499999999999998e-01 8.8066245383236588e+00 4.1223185447530772e+00 1.6953015344352593e+01 -5 -1 0
4313 444 1 4.1499999999999998e-01 6.9538545144977171e+00 6.6505354065844848e+00 2.2354043653993365e+01 0 2 0
169 444 2 -8.2999999999999996e-01 6.8206884098600478e+00 1.5958222032638800e-01 2.2191860354616875e+01 3 2 0
1754 444 1 4.1499999999999998e-01 7.6823409642180362e-01 6.4260821262129868e+00 2.1777791132720605e+01 0 -1 0
5258 444 1 4.1499999999999998e-01 8.7473038429836389e+00 3.3690245559603338e+00 2.3080725547384191e+01 -2 -1 0
4410 444 1 4.1499999999999998e-01 2.4260569097584583e+00 1.4765157715456982e+00 2.2695201656370234e+01 5 0 0
1001 444 1 4.1499999999999998e-01 1.0676655911187105e+01 1.1186045375081428e+00 1.6436941540301429e+01 -1 -1 0
3156 444 1 4.1499999999999998e-01 9.7732340930772510e-01 4.2984182977729839e+00 2.0690456205526868e+01 0 -1 0
3154 444 2 -8.2999999999999996e-01 1.6224935338282975e+00 4.2708914549578925e+00 1.9983894109204336e+01 0 -1 0
872 444 1 4.1499999999999998e-01 2.8125742261591431e+00 2.6075492616637863e+00 1.9768898983967603e+01 -2 2 0
5205 444 1 4.1499999999999998e-01 3.1817178621657569e+00 7.6313644293228728e+00 1.8702031654477270e+01 2 0 0
5679 444 1 4.1499999999999998e-01 8.8083194500460689e+00 2.1899474880397367e+00 2.1360270796592982e+01 -1 3 0
2009 444 1 4.1499999999999998e-01 4.5605775801360346e+00 2.4339357737786358e+00 1.8143433054341571e+01 -5 -3 0
4511 444 1 4.1499999999999998e-01 7.4910767014946247e+00 4.8500369972399273e+00 1.7130931721213866e+01 -5 -1 0
5491 444 2 -8.2999999999999996e-01 5.2596670975505866e+00 4.7773145910813408e+00 1.9542833952359807e+01 -5 -2 0
2361 444 1 4.1499999999999998e-01 7.3153693661511889e+00 7.0281739244862873e+00 1.9828868724484391e+01 -1 -1 0
5493 444 1 4.1499999999999998e-01 5.5077862466575152e+00 4.1878478713445517e+00 1.8830655253548535e+01 -5 -2 0
5492 444 1 4.1499999999999998e-01 5.1566237774677086e+00 4.2050286110256208e+00 2.0303165178745541e+01 -5 -2 0
4119 444 1 4.1499999999999998e-01 4.3039501773301581e+00 2.9236836699775890e+00 2.2186937971996105e+01 3 3 0
3346 444 2 -8.2999999999999996e-01 3.0251533913169579e+00 5.9490693374792398e+00 1.8585821316051234e+01 0 2 0
3347 444 1 4.1499999999999998e-01 3.8715349852754080e+00 5.5215418932304265e+00 1.8716551398985679e+01 0 2 0
805 444 2 -8.2999999999999996e-01 3.9595425006435199e+00 5.7719925327952346e+00 2.3004581266527452e+01 -4 -1 0
807 444 1 4.1499999999999998e-01 4.2675850595587264e+00 5.0347168918592491e+00 2.2477545323491913e+01 -4 -1 0
2008 444 2 -8.2999999999999996e-01 5.3576574665224328e+00 2.7245171492737681e+00 1.7700197299795011e+01 -5 -3 0
1614 444 1 4.1499999999999998e-01 9.8004730735353984e+00 7.6186351687010090e+00 1.9721699745584473e+01 -2 1 0
4312 444 2 -8.2999999999999996e-01 6.3836763750732990e+00 7.3213885124344236e+00 2.2729656236446964e+01 0 2 0
3348 444 1 4.1499999999999998e-01 2.4523625866589147e+00 5.5532831551344515e+00 1.9242704771871754e+01 0 2 0
3234 444 1 4.1499999999999998e-01 8.4131994996194148e+00 3.8333767647792651e+00 1.9122788469907370e+01 1 2 0
5259 444 1 4.1499999999999998e-01 8.6804927244880581e+00 4.8661735359652258e+00 2.2866304545681714e+01 -2 -1 0
1960 444 2 -8.2999999999999996e-01 8.2763265978859621e+00 5.9271142154520282e+00 2.1449808412447265e+01 -1 6 0
4118 444 1 4.1499999999999998e-01 5.7665797129728551e+00 2.8829865727441106e+00 2.1798410625866719e+01 3 3 0
4117 444 2 -8.2999999999999996e-01 5.0250970054437447e+00 3.4807441719075629e+00 2.1893914712611490e+01 3 3 0
1962 444 1 4.1499999999999998e-01 8.8753314541757469e+00 6.4462282324841809e+00 2.0913202735518158e+01 -1 6 0
1961 444 1 4.1499999999999998e-01 8.1933458328091859e+00 5.0963721941127273e+00 2.0981606028570614e+01 -1 6 0
5678 444 1 4.1499999999999998e-01 8.1231179149839416e+00 1.1388744414161303e+00 2.2207406646611165e+01 -1 3 0
2360 444 1 4.1499999999999998e-01 5.8530128313039791e+00 6.6670931368829098e+00 1.9677115194023234e+01 -1 -1 0
3232 444 2 -8.2999999999999996e-01 8.6305463714779318e+00 3.8062327457650333e+00 2.0054590659734366e+01 1 2 0
151 444 2 -8.2999999999999996e-01 1.8937219524645665e+00 7.5734683156620770e+00 2.2320315840911647e+01 1 3 0
2010 444 1 4.1499999999999998e-01 5.0902953343313770e+00 2.8623539574598955e+00 1.6791489288693057e+01 -5 -3 0
3774 444 1 4.1499999999999998e-01 1.0773370841829523e+01 1.5871353899670551e+00 1.9829957922726781e+01 2 -2 0
4510 444 2 -8.2999999999999996e-01 8.0347064099952963e+00 4.1635655204960411e+00 1.7517526270211167e+01 -5 -1 0
4408 444 2 -8.2999999999999996e-01 3.3699036369423214e+00 1.5891303243782502e+00 2.2582487533687846e+01 5 0 0
5257 444 2 -8.2999999999999996e-01 8.9703057220644613e+00 4.2034794277466965e+00 2.3493262908573062e+01 -2 -1 0
3718 444 2 -8.2999999999999996e-01 9.5179311150684676e+00 9.1700185347021612e-01 1.9113952131733999e+01 -1 -3 0
3719 444 1 4.1499999999999998e-01 8.5644269936425204e+00 9.9652552169465680e-01 1.9086795121281710e+01 -1 -3 0
3720 444 1 4.1499999999999998e-01 9.8090428811389074e+00 1.2258513697877980e+00 1.8255990800275384e+01 -1 -3 0
806 444 1 4.1499999999999998e-01 4.7577543306865984e+00 6.2342589064138139e+00 2.3260314977855607e+01 -4 -1 0
5677 444 2 -8.2999999999999996e-01 8.7475570381565699e+00 1.8625991964399560e+00 2.2257701939783402e+01 -1 3 0
2359 444 2 -8.2999999999999996e-01 6.4511984098980628e+00 7.4143033766173332e+00 1.9686233465793922e+01 -1 -1 0
1612 444 2 -8.2999999999999996e-01 9.3058628851827621e+00 7.0208035363074099e+00 1.9161173265828683e+01 -2 1 0
431 444 1 4.1499999999999998e-01 6.5925573020299586e+00 1.8714481013773179e+00 1.8774209168904278e+01 0 -5 0
3233 444 1 4.1499999999999998e-01 9.5870983750473684e+00 3.7792509231680196e+00 2.0077213051432622e+01 1 2 0
3593 444 1 4.1499999999999998e-01 1.1266821254444238e+01 2.6204521827714884e+00 2.4370601411478194e+01 1 2 0
153 444 1 4.1499999999999998e-01 2.7131576501707797e+00 7.0936391824151661e+00 2.2440822627139632e+01 1 3 0
1613 444 1 4.1499999999999998e-01 9.9747504553766202e+00 6.5428589614482169e+00 1.8670877163547484e+01 -2 1 0
3374 444 1 4.1499999999999998e-01 1.0902183058356702e+01 4.9870649275774532e+00 1.7364666182636057e+01 -4 5 0
3373 444 2 -8.2999999999999996e-01 1.1077452652457449e+01 5.5053354459172859e+00 1.8150101463427703e+01 -4 5 0
3447 444 1 4.1499999999999998e-01 1.0084435283092347e+01 7.4815454927043081e+00 2.4322030569785941e+01 -2 3 0
5283 444 1 4.1499999999999998e-01 1.0361702222853353e-01 5.7311305123023741e+00 1.7921425039757221e+01 -1 6 0
4409 444 1 4.1499999999999998e-01 3.7128820572124086e+00 1.6469485339322942e+00 2.3474258274530602e+01 5 0 0
170 444 1 4.1499999999999998e-01 6.6204237357532856e+00 4.9886967544560318e-01 2.1319501615596195e+01 3 2 0
1874 444 1 4.1499999999999998e-01 1.0154902453033305e+00 3.6140210965128055e+00 1.6855608815545374e+01 1 0 0
5703 444 1 4.1499999999999998e-01 7.7463516258861214e+00 7.6916762001094163e+00 2.3765506463956243e+01 0 2 0
4314 444 1 4.1499999999999998e-01 5.9664053620364728e+00 7.7329043968925095e+00 2.1972839654752637e+01 0 2 0
2571 444 1 4.1499999999999998e-01 9.1241010233788202e+00 7.2467657509918126e-03 2.3466948031136525e+01 -2 2 0
4035 444 1 4.1499999999999998e-01 8.4163566896934183e-01 5.0327513312130225e+00 3.0305818179498313e+01 -1 -6 0
4034 444 1 4.1499999999999998e-01 4.2972511302595312e-01 6.4859582779139426e+00 3.0203767628953873e+01 -1 -6 0
3594 444 1 4.1499999999999998e-01 1.0051702145330593e+01 3.4979482838509468e+00 2.4583630078392321e+01 1 2 0
3728 444 1 4.1499999999999998e-01 8.9802952643660439e-01 2.5459964572380192e+00 2.7666790332743485e+01 2 -1 0
3445 444 2 -8.2999999999999996e-01 1.1018691934402266e+01 7.3329139668416818e+00 2.4467993001341853e+01 -2 3 0
5619 444 1 4.1499999999999998e-01 6.2083058159526203e+00 1.1551491760451009e+00 2.7573723473298664e+01 0 -2 0
3729 444 1 4.1499999999999998e-01 1.6983402373056140e+00 1.4957701786425253e+00 2.6926234791254892e+01 2 -1 0
3894 444 1 4.1499999999999998e-01 1.0920821317126498e+01 5.9904138242571383e+00 2.6275345870602735e+01 1 0 0
5653 444 2 -8.2999999999999996e-01 6.5493294164813278e+00 3.1735225514590870e-01 2.9285654982336101e+01 -4 0 0
5654 444 1 4.1499999999999998e-01 5.8794936465743683e+00 2.3579102054668183e-01 2.9964550848393575e+01 -4 0 0
43 444 2 -8.2999999999999996e-01 5.8273274229610577e+00 7.6205746071141487e+00 2.5662219626036666e+01 0 2 0
2203 444 2 -8.2999999999999996e-01 8.2394838291673498e+00 2.1444515790605365e+00 2.9945319234287240e+01 1 3 0
2527 444 2 -8.2999999999999996e-01 1.0576441234646959e+01 2.1337830854833513e+00 3.1233179799545230e+01 2 0 0
2204 444 1 4.1499999999999998e-01 7.6440107169515441e+00 1.4097357263069803e+00 2.9797548319788106e+01 1 3 0
3209 444 1 4.1499999999999998e-01 3.5481577550116841e+00 6.8621042747424639e+00 3.1712202336614322e+01 2 1 0
2100 444 1 4.1499999999999998e-01 7.8718112286688156e+00 5.1168602400293128e+00 2.5172497611546834e+01 2 1 0
45 444 1 4.1499999999999998e-01 5.8630530064338409e+00 7.5831108604186888e+00 2.4706420563200439e+01 0 2 0
3592 444 2 -8.2999999999999996e-01 1.0751276130215626e+01 3.0461845187199317e+00 2.5055581001811291e+01 1 2 0
491 444 1 4.1499999999999998e-01 5.8928583387720801e+00 6.8660299505082527e+00 2.9422095818382008e+01 -1 3 0
490 444 2 -8.2999999999999996e-01 6.0557508454048241e+00 6.2995212543591013e+00 3.0176261260550703e+01 -1 3 0
188 444 1 4.1499999999999998e-01 7.5223332352575305e+00 7.1136463211171126e+00 3.0343527113165905e+01 -7 5 0
2098 444 2 -8.2999999999999996e-01 7.4007716043914646e+00 5.4158380964324220e+00 2.5950293203513016e+01 2 1 0
5618 444 1 4.1499999999999998e-01 6.7491676605921480e+00 8.5184540678319631e-01 2.6192647761159389e+01 0 -2 0
3323 444 1 4.1499999999999998e-01 3.5467466873813627e+00 2.5246168522749284e+00 2.6109660493640032e+01 -1 -4 0
3725 444 1 4.1499999999999998e-01 9.1157171912869845e+00 4.6278178665682255e+00 2.9114658089672240e+01 0 0 0
2099 444 1 4.1499999999999998e-01 7.7208089696711655e+00 4.8534327428530828e+00 2.6655635984826290e+01 2 1 0
3208 444 2 -8.2999999999999996e-01 2.7881973916269263e+00 6.8480602232483223e+00 3.2294005431227255e+01 2 1 0
3838 444 2 -8.2999999999999996e-01 2.7044992990963421e+00 4.4397400539716170e+00 2.6532253350768130e+01 0 -3 0
3727 444 2 -8.2999999999999996e-01 1.0878736629304020e+00 1.6078864326187661e+00 2.7654927527181993e+01 2 -1 0
44 444 1 4.1499999999999998e-01 6.4612601328673289e+00 6.9645206780186877e+00 2.5951968253505569e+01 0 2 0
2528 444 1 4.1499999999999998e-01 1.0431768679387817e+01 1.7298840339337131e+00 3.2088847690481870e+01 2 0 0
3322 444 2 -8.2999999999999996e-01 3.4994917138773429e+00 1.5903128788570640e+00 2.6312329858811850e+01 -1 -4 0
3324 444 1 4.1499999999999998e-01 4.4111238862205031e+00 1.2984944208176037e+00 2.6313058750709249e+01 -1 -4 0
3724 444 2 -8.2999999999999996e-01 8.9050459140719642e+00 4.6804162929592152e+00 3.0046904229743781e+01 0 0 0
3210 444 1 4.1499999999999998e-01 2.1019615494801447e+00 6.4199262372573305e+00 3.1782132873821574e+01 2 1 0
492 444 1 4.1499999999999998e-01 5.5655827673793006e+00 5.4996867001300735e+00 2.9985914872637576e+01 -1 3 0
1294 444 2 -8.2999999999999996e-01 7.7562990711993161e+00 3.2623601526536761e+00 2.7759175456558605e+01 -1 3 0
1296 444 1 4.1499999999999998e-01 6.8120492258838459e+00 3.3453936892278366e+00 2.7626023339088526e+01 -1 3 0
2287 444 2 -8.2999999999999996e-01 8.7615050446716083e+00 1.3258739361382119e+00 2.6186452169499848e+01 -2 6 0
2288 444 1 4.1499999999999998e-01 9.5661458921135427e+00 1.6566958047254916e+00 2.5787274720321850e+01 -2 6 0
592 444 2 -8.2999999999999996e-01 3.1440091699880512e+00 2.0041506295440241e+00 3.0284558685971053e+01 1 3 0
594 444 1 4.1499999999999998e-01 2.6547336223081408e+00 1.4801551881415003e+00 2.9650311115205831e+01 1 3 0
1295 444 1 4.1499999999999998e-01 7.8415461401523361e+00 2.8172763496819391e+00 2.8602303678329719e+01 -1 3 0
3839 444 1 4.1499999999999998e-01 2.9507018555298994e+00 5.2167352666240037e+00 2.6030362148400716e+01 0 -3 0
5687 444 1 4.1499999999999998e-01 4.0825366456789371e+00 3.3824922550232914e+00 2.9562330975600524e+01 4 0 0
5686 444 2 -8.2999999999999996e-01 4.3175482517476045e+00 4.2330268302639213e+00 2.9191395464426865e+01 4 0 0
5688 444 1 4.1499999999999998e-01 3.5972391502556369e+00 4.4428983438914678e+00 2.8596970647785277e+01 4 0 0
1742 444 1 4.1499999999999998e-01 2.6948234509625300e+00 3.0979720395250450e+00 3.1695566564413646e+01 -1 4 0
593 444 1 4.1499999999999998e-01 3.6939120603901272e+00 1.3708139688368779e+00 3.0745777965604546e+01 1 3 0
5617 444 2 -8.2999999999999996e-01 5.9741054379928578e+00 1.1834160002442298e+00 2.6646047502005537e+01 0 -2 0
2289 444 1 4.1499999999999998e-01 8.4767204700677343e+00 2.0288004978994909e+00 2.6770425653269172e+01 -2 6 0
3726 444 1 4.1499999999999998e-01 8.5249026444906377e+00 3.8270773068887678e+00 3.0255555945515205e+01 0 0 0
3840 444 1 4.1499999999999998e-01 1.8608668975278047e+00 4.6647891933806704e+00 2.6924515720818047e+01 0 -3 0
2205 444 1 4.1499999999999998e-01 8.9939117209165200e+00 1.7564923314100240e+00 3.0388667825641491e+01 1 3 0
3892 444 2 -8.2999999999999996e-01 1.1075752708094521e+01 5.1800259357604297e+00 2.6760629086104963e+01 1 0 0
4033 444 2 -8.2999999999999996e-01 1.0477743342350563e+00 5.9035977873382617e+00 3.0645472582552191e+01 -1 -6 0
189 444 1 4.1499999999999998e-01 8.8989340878522238e+00 6.7424220316486583e+00 3.0852504279110473e+01 -7 5 0
1606 444 2 -8.2999999999999996e-01 2.5200450614302700e-01 5.0814945462281580e+00 2.7819519154387685e+01 0 3 0
4749 444 1 4.1499999999999998e-01 1.9093559682940007e+00 6.9865040344901876e+00 2.9191970133105855e+01 1 -3 0
1678 444 2 -8.2999999999999996e-01 5.0030172590528661e+00 2.8790561344947407e-01 3.1385238723097462e+01 -3 0 0
4173 444 1 4.1499999999999998e-01 7.8022411214638794e+00 5.3854337022568002e+00 3.2126667015895393e+01 0 3 0
187 444 2 -8.2999999999999996e-01 8.3980780082415087e+00 7.4720797824197014e+00 3.0487847478735798e+01 -7 5 0
1743 444 1 4.1499999999999998e-01 2.5115372844883614e+00 4.3750253606245284e+00 3.2487675592750008e+01 -1 4 0
2570 444 1 4.1499999999999998e-01 8.6573477531854852e+00 1.1721468262472674e-01 2.4902895042679191e+01 -2 2 0
1679 444 1 4.1499999999999998e-01 5.6847082478910584e+00 8.4921964937645389e-01 3.1754637882376425e+01 -3 0 0
2529 444 1 4.1499999999999998e-01 1.0718416069330168e+01 3.0605151090184579e+00 3.1426164234954683e+01 2 0 0
5733 444 1 4.1499999999999998e-01 1.0432904800360745e+01 4.6968236861444081e+00 3.0806110126274774e+01 0 1 0
3893 444 1 4.1499999999999998e-01 1.0688567593709108e+01 4.4956617965988555e+00 2.6214766470104173e+01 1 0 0
4747 444 2 -8.2999999999999996e-01 2.4322670105576418e+00 7.7574397567726043e+00 2.8971846995482519e+01 1 -3 0
5693 444 1 4.1499999999999998e-01 1.1092426450926480e+01 4.6795344247954485e-01 2.8309681495162245e+01 -5 -6 0
5694 444 1 4.1499999999999998e-01 1.0930252951180142e+01 1.2403106077061530e+00 2.9601602656334759e+01 -5 -6 0