LAMMPS data file via write_data, version 11 Aug 2017, timestep = 5000000

7192 atoms
4 atom types
4000 bonds
1 bond types
2000 angles
1 angle types

0.0000000000000000e+00 4.5679949999999998e+01 xlo xhi
0.0000000000000000e+00 4.6885919999999999e+01 ylo yhi
0.0000000000000000e+00 6.5000000000000000e+01 zlo zhi

Masses

1 1.0079
2 15.9994
3 22.9898
4 107.868

Bond Coeffs # harmonic

1 450 0.9572

Angle Coeffs # harmonic

1 55 104.52

Atoms # full

6041 444 4 0.0000000000000000e+00 1.6907200000000000e+00 0.0000000000000000e+00 0.0000000000000000e+00 0 0 0
6042 444 4 0.0000000000000000e+00 4.2285000000000004e+00 1.4651900000000000e+00 0.0000000000000000e+00 0 0 0
6043 444 4 -1.3889000000000001e-01 1.6907700000000001e+00 0.0000000000000000e+00 7.1781499999999996e+00 0 0 0
6044 444 4 -1.3889000000000001e-01 4.2285500000000003e+00 1.4651900000000000e+00 7.1781499999999996e+00 0 0 0
6045 444 4 0.0000000000000000e+00 2.5366499999999998e+00 1.4651900000000000e+00 2.3926400000000001e+00 0 0 0
6046 444 4 0.0000000000000000e+00 5.0744199999999999e+00 0.0000000000000000e+00 2.3926400000000001e+00 0 0 0
6047 444 4 0.0000000000000000e+00 8.4509000000000001e-01 1.4651900000000000e+00 4.7824200000000001e+00 0 0 0
6048 444 4 0.0000000000000000e+00 3.3828600000000000e+00 0.0000000000000000e+00 4.7824499999999999e+00 0 0 0
6049 444 4 0.0000000000000000e+00 1.6907200000000000e+00 2.9303699999999999e+00 0.0000000000000000e+00 0 0 0
6050 444 4 0.0000000000000000e+00 4.2285000000000004e+00 4.3955599999999997e+00 0.0000000000000000e+00 0 0 0
6051 444 4 -1.3889000000000001e-01 1.6907700000000001e+00 2.9303699999999999e+00 7.1781899999999998e+00 0 0 0
6052 444 4 -1.3889000000000001e-01 4.2285500000000003e+00 4.3955599999999997e+00 7.1781600000000001e+00 0 0 0
6053 444 4 0.0000000000000000e+00 2.5366499999999998e+00 4.3955599999999997e+00 2.3926400000000001e+00 0 0 0
6054 444 4 0.0000000000000000e+00 5.0744199999999999e+00 2.9303699999999999e+00 2.3926400000000001e+00 0 0 0
6055 444 4 0.0000000000000000e+00 8.4509000000000001e-01 4.3955599999999997e+00 4.7824499999999999e+00 0 0 0
6056 444 4 0.0000000000000000e+00 3.3828700000000000e+00 2.9303699999999999e+00 4.7824400000000002e+00 0 0 0
4157 444 1 4.1499999999999998e-01 1.6565568399980846e+00 3.8891649454532131e+00 1.0069514531919600e+01 3 1 0
4156 444 2 -8.2999999999999996e-01 2.5516975373095567e+00 4.2249797513900571e+00 1.0022787153009753e+01 3 1 0
6008 444 3 1.0000000000000000e+00 4.0010841463541151e+00 4.6845538932889514e+00 1.1777036197207806e+01 -2 0 0
2399 444 1 4.1499999999999998e-01 1.9792680964165466e+00 2.0280213543857761e+00 1.0111694988138483e+01 2 0 0
2632 444 2 -8.2999999999999996e-01 3.4055076592869566e+00 2.9538674378022463e+00 1.3547180216638408e+01 0 1 0
2634 444 1 4.1499999999999998e-01 3.1570686822460252e+00 3.4498163368938530e+00 1.4327273355119445e+01 0 1 0
313 444 2 -8.2999999999999996e-01 1.1255120470847748e+00 1.2415894024471892e+00 1.4332174671306703e+01 1 1 0
4158 444 1 4.1499999999999998e-01 2.7801158130454819e+00 4.1710425601689129e+00 9.0948067168248112e+00 3 1 0
2633 444 1 4.1499999999999998e-01 2.8024248866369619e+00 2.2106809024027561e+00 1.3533128298747522e+01 0 1 0
4534 444 2 -8.2999999999999996e-01 5.1257216499080123e+00 2.9239633067454873e+00 1.0840082810156545e+01 -2 0 0
2400 444 1 4.1499999999999998e-01 2.7405387329280391e+00 9.8387714406619109e-01 1.0900443953063697e+01 2 0 0
2398 444 2 -8.2999999999999996e-01 1.9975984087991476e+00 1.5845068342298323e+00 1.0959746381745282e+01 2 0 0
5502 444 1 4.1499999999999998e-01 1.0632241405557930e+00 4.8056261180666402e+00 1.2953904463606468e+01 2 1 0
4536 444 1 4.1499999999999998e-01 4.8447150244283845e+00 2.0095025671546223e+00 1.0807995261804130e+01 -2 0 0
314 444 1 4.1499999999999998e-01 1.2485651256081287e+00 1.9336760270869828e+00 1.4981872449293007e+01 1 1 0
4387 444 2 -8.2999999999999996e-01 2.1011610746970990e+00 3.1082210313341307e+00 1.5978807591999519e+01 1 -1 0
5204 444 1 4.1499999999999998e-01 4.9961118233276478e+00 7.4286322729626986e-01 1.3654867512001941e+01 3 2 0
5306 444 1 4.1499999999999998e-01 4.7394780308397779e+00 1.2140104953960431e+00 1.5538006152424439e+01 2 0 0
2678 444 1 4.1499999999999998e-01 4.6333051618570558e+00 1.1255946977749619e-01 9.8635364397554213e+00 -3 0 0
5500 444 2 -8.2999999999999996e-01 2.6570737778633335e-01 4.3983551433368522e+00 1.2615778459157525e+01 2 1 0
315 444 1 4.1499999999999998e-01 1.1337401434882541e+00 4.3074304441401545e-01 1.4840793216546825e+01 1 1 0
2702 444 1 4.1499999999999998e-01 7.3033844759606836e-03 5.6287481983701158e+00 9.2051273510545748e+00 2 3 0
2677 444 2 -8.2999999999999996e-01 4.3702796032459377e+00 1.0324773945640277e-01 1.0783842189066608e+01 -3 0 0
4535 444 1 4.1499999999999998e-01 5.3118311539130056e+00 3.1499537560837028e+00 9.9287518727457922e+00 -2 0 0
5501 444 1 4.1499999999999998e-01 1.3604152775419090e-01 4.8010784115258867e+00 1.1757155994442430e+01 2 1 0
2958 444 1 4.1499999999999998e-01 5.4612479184174640e+00 5.7169813997162731e+00 1.4309894620673184e+01 0 3 0
2989 444 2 -8.2999999999999996e-01 2.1456626286465723e+00 2.9781006409259083e+00 2.0390796090661741e+01 -2 -2 0
4405 444 2 -8.2999999999999996e-01 4.9076008542835531e-01 5.9464037037815720e-01 2.1375466043160007e+01 0 0 0
5307 444 1 4.1499999999999998e-01 4.4012961420852443e+00 1.8357597041338214e-01 1.6594288665343512e+01 2 0 0
5305 444 2 -8.2999999999999996e-01 4.2966619036865605e+00 1.1106649320645379e+00 1.6380303816835799e+01 2 0 0
2969 444 1 4.1499999999999998e-01 3.7939855504755665e-01 1.7442183829071181e+00 1.8652270125467904e+01 3 -1 0
2970 444 1 4.1499999999999998e-01 4.2022442052698017e-01 2.3182299554747918e-01 1.8706018432246886e+01 3 -1 0
4816 444 2 -8.2999999999999996e-01 2.9995546655337573e+00 5.7231864858092409e+00 2.3732504390972625e+01 -1 3 0
3852 444 1 4.1499999999999998e-01 2.9683916571603848e+00 4.6954550325920517e+00 1.7339966944753915e+01 4 -2 0
523 444 2 -8.2999999999999996e-01 4.0950133710740388e+00 3.7619043379199320e+00 2.2217534266502980e+01 0 -4 0
4388 444 1 4.1499999999999998e-01 2.8270469875930804e+00 2.6855993560331863e+00 1.6437842165796678e+01 1 -1 0
5833 444 2 -8.2999999999999996e-01 4.3974660107045196e+00 1.8978211707359260e+00 1.8990406232730493e+01 1 1 0
5834 444 1 4.1499999999999998e-01 4.4733216359893051e+00 1.8601907590394655e+00 1.8036958496214933e+01 1 1 0
5835 444 1 4.1499999999999998e-01 3.5922041737189221e+00 2.3907792728493558e+00 1.9147815701522486e+01 1 1 0
767 444 1 4.1499999999999998e-01 5.1168751365052021e+00 5.6949350777956909e+00 1.6572153183664501e+01 -4 3 0
524 444 1 4.1499999999999998e-01 4.5297917070187736e+00 3.1023594151780514e+00 2.2758089464995408e+01 0 -4 0
525 444 1 4.1499999999999998e-01 4.8025606701156365e+00 4.1629059486464044e+00 2.1712750918920790e+01 0 -4 0
3872 444 1 4.1499999999999998e-01 1.6711373990803247e+00 3.9331046718731977e+00 1.9018944439855080e+01 1 -1 0
3850 444 2 -8.2999999999999996e-01 3.7219362184513067e+00 5.2856509856071483e+00 1.7348400130012504e+01 4 -2 0
5466 444 1 4.1499999999999998e-01 6.0889872267272493e-01 5.1015233870836871e+00 2.2393874741178401e+01 2 2 0
2968 444 2 -8.2999999999999996e-01 6.7610562045927114e-01 9.7712247066367608e-01 1.8162616128338815e+01 3 -1 0
2991 444 1 4.1499999999999998e-01 2.5942905003586549e+00 3.4924162846439257e+00 2.1061948139930220e+01 -2 -2 0
4407 444 1 4.1499999999999998e-01 6.7150700373356531e-01 9.4566312410590700e-02 2.2171385829537090e+01 0 0 0
4389 444 1 4.1499999999999998e-01 1.5862944728959811e+00 3.5207288642961565e+00 1.6672336911889811e+01 1 -1 0
3871 444 2 -8.2999999999999996e-01 1.3131831773105518e+00 4.2775601632423603e+00 1.8200744624282013e+01 1 -1 0
2990 444 1 4.1499999999999998e-01 1.8917435473763324e+00 2.1703609706400382e+00 2.0837242008866632e+01 -2 -2 0
291 444 1 4.1499999999999998e-01 5.2707495845799670e+00 1.0829135790034974e+00 2.3945995848548474e+01 1 0 0
3873 444 1 4.1499999999999998e-01 5.8840370740694692e-01 4.8399996195150905e+00 1.8473853383499641e+01 1 -1 0
4056 444 1 4.1499999999999998e-01 3.9876742982778994e+00 9.5804537783692495e-02 2.1366297512627842e+01 2 -1 0
4817 444 1 4.1499999999999998e-01 3.1189702948410960e+00 4.8123939156202766e+00 2.3463378695989551e+01 -1 3 0
4055 444 1 4.1499999999999998e-01 4.1139144078355798e+00 3.2588328622300528e-01 1.9875317083969904e+01 2 -1 0
289 444 2 -8.2999999999999996e-01 5.6823854144500379e+00 1.8186689846961814e+00 2.3492727435502772e+01 1 0 0
987 444 1 4.1499999999999998e-01 3.2579510127474881e-01 5.5528125840793692e+00 2.0716578794555723e+01 -2 1 0
1323 444 1 4.1499999999999998e-01 4.7733097361254756e-01 5.8376082269123053e+00 3.2050063931379640e+01 0 2 0
2142 444 1 4.1499999999999998e-01 3.9581635568367468e+00 6.5516581937086971e-01 2.5536011549279518e+01 2 2 0
1746 444 1 4.1499999999999998e-01 2.7686431206205224e+00 8.8519734680774609e-01 3.0260169655378103e+01 -1 2 0
5037 444 1 4.1499999999999998e-01 1.1403997816455638e+00 2.6827883504251302e+00 2.4727743821739168e+01 1 0 0
1970 444 1 4.1499999999999998e-01 3.8972761972448544e-01 5.2778620097350881e+00 2.8815965023265807e+01 1 -6 0
819 444 1 4.1499999999999998e-01 7.0334250760630290e-01 2.1753636634427247e+00 2.9386958531812745e+01 -2 -1 0
818 444 1 4.1499999999999998e-01 6.7061228349305091e-01 9.0172487374941224e-01 2.8569237277839132e+01 -2 -1 0
5035 444 2 -8.2999999999999996e-01 1.5188725089715589e+00 3.3176087146517625e+00 2.5336014924094524e+01 1 0 0
246 444 1 4.1499999999999998e-01 2.7102122325349716e+00 1.5860352618600133e+00 2.7603762492946021e+01 2 1 0
245 444 1 4.1499999999999998e-01 2.9339061101453492e+00 2.6641629091480459e+00 2.6564774114290884e+01 2 1 0
593 444 1 4.1499999999999998e-01 3.5341649259203760e+00 5.2282475557923060e+00 2.5375226238526793e+01 0 0 0
592 444 2 -8.2999999999999996e-01 4.0654378293142113e+00 5.2204405496728272e+00 2.6171417430915163e+01 0 0 0
1051 444 2 -8.2999999999999996e-01 3.6759827751847132e+00 3.3468120164160471e+00 3.1909127799538908e+01 1 1 0
4819 444 2 -8.2999999999999996e-01 3.4123454013724843e+00 4.9954693630231501e+00 2.9043451699462857e+01 0 1 0
1052 444 1 4.1499999999999998e-01 3.7879738583998148e+00 3.9751939206538198e+00 3.1195807386817425e+01 1 1 0
1588 444 2 -8.2999999999999996e-01 1.0520733524574264e+00 3.9804550782335415e+00 3.2427412140356090e+01 4 1 0
1590 444 1 4.1499999999999998e-01 1.8767408595780664e+00 3.7541504150998479e+00 3.1997363194654945e+01 4 1 0
817 444 2 -8.2999999999999996e-01 1.2136575682933455e+00 1.6674800561433929e+00 2.8756193436681279e+01 -2 -1 0
4820 444 1 4.1499999999999998e-01 4.1631411950248234e+00 5.4170174243148104e+00 2.9461584155506799e+01 0 1 0
244 444 2 -8.2999999999999996e-01 3.2709620404898976e+00 1.8197342743674509e+00 2.6864048874906352e+01 2 1 0
5036 444 1 4.1499999999999998e-01 7.6322741940248706e-01 3.7648536580741263e+00 2.5717072246151332e+01 1 0 0
3473 444 1 4.1499999999999998e-01 5.0157881461842386e+00 2.2155972904192054e+00 2.7183444852285142e+01 -1 4 0
1971 444 1 4.1499999999999998e-01 1.8199581108173979e+00 5.6643001127636294e+00 2.9127414978417807e+01 1 -6 0
4821 444 1 4.1499999999999998e-01 3.5919000101243332e+00 5.0610592078343615e+00 2.8105533840733571e+01 0 1 0
1744 444 2 -8.2999999999999996e-01 3.3823007687968207e+00 2.7098472916506705e-01 3.0663158007692541e+01 -1 2 0
195 444 1 4.1499999999999998e-01 3.4425141230212533e+00 4.5833067295913227e-01 3.2420638819415053e+01 -1 4 0
2140 444 2 -8.2999999999999996e-01 3.9257316963788971e+00 5.9766871158849773e-02 2.4787225970750100e+01 2 2 0
3449 444 1 4.1499999999999998e-01 4.3248257595281974e+00 3.7010652365118899e+00 3.4798355609471223e+01 3 0 0
4283 444 1 4.1499999999999998e-01 9.5756751826323294e-01 1.3088723983512005e+00 3.3146887005597016e+01 -1 -5 0
3910 444 2 -8.2999999999999996e-01 2.2565565786876336e+00 5.7645875359535772e+00 3.5333719744788269e+01 2 2 0
3448 444 2 -8.2999999999999996e-01 4.9561342378266557e+00 3.9354612358313625e+00 3.4118104869397868e+01 3 0 0
3912 444 1 4.1499999999999998e-01 1.5312575015969883e+00 5.5259234313373353e+00 3.5910965381895259e+01 2 2 0
1558 444 2 -8.2999999999999996e-01 9.7633316744926479e-01 1.7571875017993555e+00 3.5503212219868928e+01 0 1 0
4282 444 2 -8.2999999999999996e-01 3.3732819798170034e-02 1.3285466401406967e+00 3.2897137669609876e+01 -1 -5 0
1986 444 1 4.1499999999999998e-01 5.5778057516090431e+00 1.5984158904495278e+00 3.6224564118207816e+01 1 0 0
1589 444 1 4.1499999999999998e-01 6.4962765680991785e-01 3.1368409277599301e+00 3.2633772951543648e+01 4 1 0
4004 444 1 4.1499999999999998e-01 4.9229529911318908e+00 6.4060514524026058e-01 3.4555670948002238e+01 2 -1 0
3025 444 2 -8.2999999999999996e-01 2.9833140455380009e+00 3.1590148146768424e+00 3.5761563609112983e+01 -2 0 0
3911 444 1 4.1499999999999998e-01 2.6928789062997769e+00 4.9347252101853867e+00 3.5140890440166459e+01 2 2 0
3026 444 1 4.1499999999999998e-01 2.3294140038598323e+00 2.4650315625308656e+00 3.5677695844465227e+01 -2 0 0
194 444 1 4.1499999999999998e-01 3.5616805325163492e+00 1.9010870175167738e+00 3.2863525570047806e+01 -1 4 0
1560 444 1 4.1499999999999998e-01 9.3775346205634380e-02 2.0987028561308203e+00 3.5359367990412807e+01 0 1 0
3027 444 1 4.1499999999999998e-01 3.5696489440000114e+00 2.8538864890539397e+00 3.6453907368758102e+01 -2 0 0
193 444 2 -8.2999999999999996e-01 3.6130144388619492e+00 1.0025337369446228e+00 3.3189406962451841e+01 -1 4 0
1053 444 1 4.1499999999999998e-01 4.2592979330318581e+00 3.6613347481128153e+00 3.2599816314969935e+01 1 1 0
1984 444 2 -8.2999999999999996e-01 5.3926049349922653e+00 2.3564914175125273e+00 3.6778869087364185e+01 1 0 0
1559 444 1 4.1499999999999998e-01 8.5054931317365301e-01 8.1878846153774720e-01 3.5643986648748431e+01 0 1 0
6057 444 4 0.0000000000000000e+00 1.6907200000000000e+00 5.8607399999999998e+00 0.0000000000000000e+00 0 0 0
6058 444 4 0.0000000000000000e+00 4.2285000000000004e+00 7.3259299999999996e+00 0.0000000000000000e+00 0 0 0
6059 444 4 -1.3889000000000001e-01 1.6907700000000001e+00 5.8607399999999998e+00 7.1781499999999996e+00 0 0 0
6060 444 4 -1.3889000000000001e-01 4.2285500000000003e+00 7.3259299999999996e+00 7.1781499999999996e+00 0 0 0
6061 444 4 0.0000000000000000e+00 2.5366499999999998e+00 7.3259299999999996e+00 2.3926400000000001e+00 0 0 0
6062 444 4 0.0000000000000000e+00 5.0744199999999999e+00 5.8607399999999998e+00 2.3926400000000001e+00 0 0 0
6063 444 4 0.0000000000000000e+00 8.4509000000000001e-01 7.3259299999999996e+00 4.7824200000000001e+00 0 0 0
6064 444 4 0.0000000000000000e+00 3.3828600000000000e+00 5.8607399999999998e+00 4.7824499999999999e+00 0 0 0
6065 444 4 0.0000000000000000e+00 1.6907200000000000e+00 8.7911099999999998e+00 0.0000000000000000e+00 0 0 0
6066 444 4 0.0000000000000000e+00 4.2285000000000004e+00 1.0256300000000000e+01 0.0000000000000000e+00 0 0 0
6067 444 4 -1.3889000000000001e-01 1.6907700000000001e+00 8.7911099999999998e+00 7.1781899999999998e+00 0 0 0
6068 444 4 -1.3889000000000001e-01 4.2285500000000003e+00 1.0256300000000000e+01 7.1781600000000001e+00 0 0 0
6069 444 4 0.0000000000000000e+00 2.5366499999999998e+00 1.0256300000000000e+01 2.3926400000000001e+00 0 0 0
6070 444 4 0.0000000000000000e+00 5.0744199999999999e+00 8.7911099999999998e+00 2.3926400000000001e+00 0 0 0
6071 444 4 0.0000000000000000e+00 8.4509000000000001e-01 1.0256300000000000e+01 4.7824499999999999e+00 0 0 0
6072 444 4 0.0000000000000000e+00 3.3828700000000000e+00 8.7911099999999998e+00 4.7824400000000002e+00 0 0 0
1476 444 1 4.1499999999999998e-01 2.8060064275886778e+00 7.2799492232943894e+00 9.7525202430529081e+00 -1 0 0
3323 444 1 4.1499999999999998e-01 1.6983807614867932e+00 8.9678097465560143e+00 1.4295373499198790e+01 1 2 0
3322 444 2 -8.2999999999999996e-01 2.2889666080679287e+00 9.7099204818615785e+00 1.4166099368059536e+01 1 2 0
3324 444 1 4.1499999999999998e-01 2.5829664194576014e+00 9.9390728900286245e+00 1.5047736978595568e+01 1 2 0
1188 444 1 4.1499999999999998e-01 5.2593661341764939e+00 6.5281047490437167e+00 9.6731940298680303e+00 1 1 0
5087 444 1 4.1499999999999998e-01 3.5916758538557003e+00 8.9497484674315899e+00 1.3327092036023769e+01 2 2 0
1474 444 2 -8.2999999999999996e-01 2.1914442626019612e+00 7.2693289296442130e+00 1.0486299957222874e+01 -1 0 0
5086 444 2 -8.2999999999999996e-01 4.3464522353557653e+00 8.3866928364631743e+00 1.3155295981966169e+01 2 2 0
5088 444 1 4.1499999999999998e-01 4.7353002474401276e+00 8.7436059417258516e+00 1.2356770136916150e+01 2 2 0
1475 444 1 4.1499999999999998e-01 1.5623379595280962e+00 6.5834811030757860e+00 1.0262536039626779e+01 -1 0 0
5920 444 2 -8.2999999999999996e-01 2.8207509491991565e+00 1.0100133818179687e+01 1.0272475864840278e+01 3 2 0
5922 444 1 4.1499999999999998e-01 2.5842090451696484e+00 1.0637194995110210e+01 9.5162713744192153e+00 3 2 0
2977 444 2 -8.2999999999999996e-01 1.0724592758206983e+00 7.5479806381562975e+00 1.5133253108536925e+01 -2 1 0
5921 444 1 4.1499999999999998e-01 3.5234052779909328e+00 9.5334821471710001e+00 9.9540190164529232e+00 3 2 0
1989 444 1 4.1499999999999998e-01 2.6657437986397343e+00 6.6487094316175490e+00 1.2093533420572143e+01 0 1 0
1988 444 1 4.1499999999999998e-01 2.1629697478917955e+00 6.6051375146286952e+00 1.3520843736896159e+01 0 1 0
1187 444 1 4.1499999999999998e-01 4.9920415973330101e+00 7.6252776503822464e+00 1.0681481878594299e+01 1 1 0
2979 444 1 4.1499999999999998e-01 1.0359482462073879e+00 7.9329413342176913e+00 1.6008870105246647e+01 -2 1 0
2747 444 1 4.1499999999999998e-01 4.9388127768187919e+00 1.1571622698713091e+01 1.3639015894064194e+01 0 0 0
2957 444 1 4.1499999999999998e-01 4.9464514010831060e+00 6.8194775626648596e+00 1.3409127220458659e+01 0 3 0
1987 444 2 -8.2999999999999996e-01 2.4130499806437848e+00 6.0413296840100736e+00 1.2788851649774616e+01 0 1 0
2794 444 2 -8.2999999999999996e-01 5.6545599476680941e+00 9.3710157422749809e+00 1.1105809687577397e+01 3 -2 0
1186 444 2 -8.2999999999999996e-01 5.0023718191492792e+00 6.6731335461991383e+00 1.0583772322853264e+01 1 1 0
2956 444 2 -8.2999999999999996e-01 5.2827668776964520e+00 5.9234614341657146e+00 1.3392429438392744e+01 0 3 0
2978 444 1 4.1499999999999998e-01 3.3642611361515767e-01 6.9365051144442980e+00 1.5109048533336241e+01 -2 1 0
6032 444 3 1.0000000000000000e+00 2.0147295825269249e+00 1.1349757365984104e+01 1.2400372294610490e+01 0 0 0
213 444 1 4.1499999999999998e-01 6.4812552460100348e-01 8.4176865326907713e+00 1.0296118288995281e+01 4 0 0
214 444 2 -8.2999999999999996e-01 1.4580104273322936e+00 9.0127875133403670e+00 1.9319574318242079e+01 1 -2 0
4704 444 1 4.1499999999999998e-01 2.2238305182790036e-01 8.9471464518212951e+00 1.8014023117545150e+01 -3 1 0
4697 444 1 4.1499999999999998e-01 3.0227351210350197e+00 1.1003912457260615e+01 1.7190833342818770e+01 2 1 0
4696 444 2 -8.2999999999999996e-01 2.7716529297090911e+00 1.0127021672630965e+01 1.6900570919362860e+01 2 1 0
2182 444 2 -8.2999999999999996e-01 4.0105285302746632e+00 1.0606022780028800e+01 2.3712865490142406e+01 1 -2 0
3240 444 1 4.1499999999999998e-01 5.1185375058814548e+00 9.0179521972449717e+00 2.2050384177302824e+01 2 2 0
986 444 1 4.1499999999999998e-01 6.0518852675927992e-01 6.9972096232543315e+00 2.0359434649497892e+01 -2 1 0
3470 444 1 4.1499999999999998e-01 4.2010546908187605e+00 7.4557047396244762e+00 1.9641536087834570e+01 -1 1 0
3134 444 1 4.1499999999999998e-01 2.5384408058513253e+00 7.6130118072840292e+00 2.1991301817371976e+01 1 -1 0
3133 444 2 -8.2999999999999996e-01 1.6861975910110170e+00 7.8926746717826308e+00 2.1657083323258391e+01 1 -1 0
985 444 2 -8.2999999999999996e-01 2.2127685801819733e-01 6.1921720303265690e+00 2.0011931310736127e+01 -2 1 0
3135 444 1 4.1499999999999998e-01 1.3747602849092542e+00 8.5314044692783302e+00 2.2298381132603829e+01 1 -1 0
4768 444 2 -8.2999999999999996e-01 5.5129380759911184e+00 8.5872508556697866e+00 1.7003446267752938e+01 3 4 0
216 444 1 4.1499999999999998e-01 2.1597150610655511e+00 8.3905071143644356e+00 1.9128237985704839e+01 1 -2 0
4770 444 1 4.1499999999999998e-01 4.9908473875058563e+00 9.3895235494565039e+00 1.6999993899071583e+01 3 4 0
3059 444 1 4.1499999999999998e-01 1.2886717038808515e+00 1.0550360750354519e+01 2.3511022175147541e+01 3 0 0
3058 444 2 -8.2999999999999996e-01 1.0265742954191086e+00 9.6588578017947455e+00 2.3281327234839186e+01 3 0 0
3060 444 1 4.1499999999999998e-01 4.4310698608761012e-01 9.3899070813204748e+00 2.3990879238413768e+01 3 0 0
3471 444 1 4.1499999999999998e-01 4.3638608191201227e+00 7.8042150537969972e+00 1.8177319449712819e+01 -1 1 0
3469 444 2 -8.2999999999999996e-01 3.7095059166205986e+00 7.5416142825318371e+00 1.8824693703897331e+01 -1 1 0
3238 444 2 -8.2999999999999996e-01 4.7065167395970455e+00 8.1609055409450963e+00 2.1941104940882092e+01 2 2 0
3349 444 2 -8.2999999999999996e-01 2.9098168656629140e+00 1.1451762734325023e+01 1.9624935274125640e+01 -2 1 0
2184 444 1 4.1499999999999998e-01 3.6732045575943522e+00 9.9717801714503818e+00 2.4345463781853056e+01 1 -2 0
4818 444 1 4.1499999999999998e-01 3.8759022799556182e+00 6.1049913745243840e+00 2.3682788710478967e+01 -1 3 0
3239 444 1 4.1499999999999998e-01 5.0738980343871782e+00 7.6264887035647781e+00 2.2645137610719321e+01 2 2 0
3351 444 1 4.1499999999999998e-01 2.7283779547523941e+00 1.0521677436796482e+01 1.9489830202211451e+01 -2 1 0
215 444 1 4.1499999999999998e-01 1.3703103744339951e+00 8.9900506200237054e+00 2.0272477028304309e+01 1 -2 0
4698 444 1 4.1499999999999998e-01 2.2124603707615802e+00 9.7929975258955508e+00 1.7601972051935501e+01 2 1 0
2183 444 1 4.1499999999999998e-01 3.2390433174273978e+00 1.0888808417910836e+01 2.3221872129166329e+01 1 -2 0
3851 444 1 4.1499999999999998e-01 3.3993855993623634e+00 6.0806279653811570e+00 1.7772904945907264e+01 4 -2 0
4611 444 1 4.1499999999999998e-01 5.6379865838767014e+00 1.0356841417171491e+01 2.3429407503690157e+01 -3 1 0
3291 444 1 4.1499999999999998e-01 4.4080580974504346e-01 1.0718590220568418e+01 2.1613579430113013e+01 1 2 0
3350 444 1 4.1499999999999998e-01 2.4085484402114492e+00 1.1682938460128984e+01 2.0406932811584340e+01 -2 1 0
2061 444 1 4.1499999999999998e-01 5.1664575507985608e+00 1.1493751942139390e+01 2.0936648535121613e+01 3 -1 0
3142 444 2 -8.2999999999999996e-01 4.3222482746787250e-01 1.1192126293696846e+01 3.1442235588517391e+01 -1 -2 0
1105 444 2 -8.2999999999999996e-01 4.8225525517893075e+00 1.0043436400246803e+01 3.1466178365299957e+01 1 -1 0
1322 444 1 4.1499999999999998e-01 5.0606355553941051e-01 6.6371167008221450e+00 3.0764818583299252e+01 0 2 0
1321 444 2 -8.2999999999999996e-01 4.2292567167821787e-01 6.7320935629805057e+00 3.1713659562341146e+01 0 2 0
827 444 1 4.1499999999999998e-01 4.8590704388952268e+00 9.1439129634933494e+00 2.8851749407952397e+01 1 -5 0
2772 444 1 4.1499999999999998e-01 3.2790528008769400e+00 1.0058918507629029e+01 3.2275583672956245e+01 1 -3 0
4794 444 1 4.1499999999999998e-01 3.1686371804948731e-02 9.3553288067892755e+00 2.6929925608301616e+01 -2 0 0
1969 444 2 -8.2999999999999996e-01 9.3917952212494915e-01 6.0288385057096541e+00 2.9040394584812198e+01 1 -6 0
1079 444 1 4.1499999999999998e-01 1.3115097486461218e+00 7.1481745128028784e+00 2.5907376351370058e+01 1 -1 0
2383 444 2 -8.2999999999999996e-01 5.3024880965501042e+00 5.9787797131629912e+00 3.0487944891448976e+01 0 -2 0
826 444 2 -8.2999999999999996e-01 5.3844983733082614e+00 8.8463742411193405e+00 2.8109032317453483e+01 1 -5 0
1078 444 2 -8.2999999999999996e-01 8.8447279206929585e-01 6.7885178964688251e+00 2.5129868543861377e+01 1 -1 0
3143 444 1 4.1499999999999998e-01 1.1624555197059225e+00 1.1083896836763833e+01 3.2051565320958623e+01 -1 -2 0
4343 444 1 4.1499999999999998e-01 2.5524251566571690e+00 7.7072502919261856e+00 2.8009887571785015e+01 0 -2 0
4851 444 1 4.1499999999999998e-01 1.5269866427866241e+00 8.8136314526393527e+00 2.9262353538371915e+01 4 2 0
4342 444 2 -8.2999999999999996e-01 2.9701863565785098e+00 7.4585235624021298e+00 2.7185362086594520e+01 0 -2 0
828 444 1 4.1499999999999998e-01 5.0005302661198856e+00 8.0040453504366376e+00 2.7865551635750226e+01 1 -5 0
4849 444 2 -8.2999999999999996e-01 2.3439252316007897e+00 8.9892040090733047e+00 2.9729278217410936e+01 4 2 0
4792 444 2 -8.2999999999999996e-01 1.4004432287416912e-01 9.8024585983770880e+00 2.6090541000292564e+01 -2 0 0
4850 444 1 4.1499999999999998e-01 2.0663629851445138e+00 9.2707478953025557e+00 3.0601014551045257e+01 4 2 0
4587 444 1 4.1499999999999998e-01 3.4032944611483167e+00 1.0457095992442875e+01 2.6676576511186173e+01 0 0 0
4344 444 1 4.1499999999999998e-01 2.8586513565606233e+00 8.2226365301790363e+00 2.6619744569956325e+01 0 -2 0
4585 444 2 -8.2999999999999996e-01 3.0104120659415283e+00 9.8939674046521890e+00 2.6009672347249783e+01 0 0 0
4586 444 1 4.1499999999999998e-01 2.0898429035175399e+00 1.0155246104478527e+01 2.5986919795268065e+01 0 0 0
1107 444 1 4.1499999999999998e-01 4.8685563222519823e+00 9.1633059767849510e+00 3.1839655949516722e+01 1 -1 0
1080 444 1 4.1499999999999998e-01 1.5916549697401117e+00 6.3684252992413173e+00 2.4640330620996199e+01 1 -1 0
2385 444 1 4.1499999999999998e-01 5.5750427182018845e+00 6.7341641180120799e+00 3.1008848071993285e+01 0 -2 0
3184 444 2 -8.2999999999999996e-01 3.4253053340339314e+00 1.1657796061029201e+01 2.7949496471294115e+01 0 0 0
1106 444 1 4.1499999999999998e-01 5.3921512013198694e+00 1.0571565905161666e+01 3.2025524780845636e+01 1 -1 0
594 444 1 4.1499999999999998e-01 3.7973086542889818e+00 6.0069379189888261e+00 2.6646560875471707e+01 0 0 0
1438 444 2 -8.2999999999999996e-01 2.5727121298866923e-01 8.4098915884042036e+00 2.8340386638262412e+01 -1 4 0
1439 444 1 4.1499999999999998e-01 4.8013761643973341e-01 7.5060944023008629e+00 2.8563350864825196e+01 -1 4 0
2331 444 1 4.1499999999999998e-01 2.2109607658816546e+00 7.2737273504336697e+00 3.4288563105862437e+01 0 -2 0
696 444 1 4.1499999999999998e-01 5.3616976515984396e+00 1.0226220752029175e+01 3.7559469022973047e+01 1 2 0
1605 444 1 4.1499999999999998e-01 4.8356851489524333e+00 8.2815883845453868e+00 3.6456242575185378e+01 3 2 0
2329 444 2 -8.2999999999999996e-01 2.0128108000782987e+00 7.8653260940534926e+00 3.3562629080759827e+01 0 -2 0
1603 444 2 -8.2999999999999996e-01 4.8900091922070157e+00 7.5607595650961130e+00 3.5828798092050448e+01 3 2 0
2770 444 2 -8.2999999999999996e-01 2.5170210459406395e+00 1.0276737399398263e+01 3.2812327638422673e+01 1 -3 0
2330 444 1 4.1499999999999998e-01 1.3859818369753156e+00 7.3825705320455857e+00 3.3023866199668987e+01 0 -2 0
2771 444 1 4.1499999999999998e-01 2.2446744354778092e+00 9.4415860856097584e+00 3.3192566112468619e+01 1 -3 0
4477 444 2 -8.2999999999999996e-01 5.1028687167245828e+00 7.9461510469727834e+00 3.2882271158596467e+01 -2 0 0
4478 444 1 4.1499999999999998e-01 4.9715019893980079e+00 7.0745962421605917e+00 3.2508952321735144e+01 -2 0 0
4479 444 1 4.1499999999999998e-01 5.2247431082718361e+00 7.7902074514334938e+00 3.3818786173937845e+01 -2 0 0
694 444 2 -8.2999999999999996e-01 4.9530101724568079e+00 1.0983348039651405e+01 3.7139987580840653e+01 1 2 0
1604 444 1 4.1499999999999998e-01 4.0402639076605222e+00 7.1244410694706977e+00 3.5890371244317805e+01 3 2 0
6073 444 4 0.0000000000000000e+00 1.6907200000000000e+00 1.1721480000000000e+01 0.0000000000000000e+00 0 0 0
6074 444 4 0.0000000000000000e+00 4.2285000000000004e+00 1.3186669999999999e+01 0.0000000000000000e+00 0 0 0
6075 444 4 -1.3889000000000001e-01 1.6907700000000001e+00 1.1721480000000000e+01 7.1781499999999996e+00 0 0 0
6076 444 4 -1.3889000000000001e-01 4.2285500000000003e+00 1.3186669999999999e+01 7.1781499999999996e+00 0 0 0
6077 444 4 0.0000000000000000e+00 2.5366499999999998e+00 1.3186669999999999e+01 2.3926400000000001e+00 0 0 0
6078 444 4 0.0000000000000000e+00 5.0744199999999999e+00 1.1721480000000000e+01 2.3926400000000001e+00 0 0 0
6079 444 4 0.0000000000000000e+00 8.4509000000000001e-01 1.3186669999999999e+01 4.7824200000000001e+00 0 0 0
6080 444 4 0.0000000000000000e+00 3.3828600000000000e+00 1.1721480000000000e+01 4.7824499999999999e+00 0 0 0
6081 444 4 0.0000000000000000e+00 1.6907200000000000e+00 1.4651850000000000e+01 0.0000000000000000e+00 0 0 0
6083 444 4 -1.3889000000000001e-01 1.6907700000000001e+00 1.4651850000000000e+01 7.1781899999999998e+00 0 0 0
6086 444 4 0.0000000000000000e+00 5.0744199999999999e+00 1.4651850000000000e+01 2.3926400000000001e+00 0 0 0
6088 444 4 0.0000000000000000e+00 3.3828700000000000e+00 1.4651850000000000e+01 4.7824400000000002e+00 0 0 0
6082 444 4 0.0000000000000000e+00 4.2285000000000004e+00 1.6117039999999999e+01 0.0000000000000000e+00 0 0 0
6084 444 4 -1.3889000000000001e-01 4.2285500000000003e+00 1.6117039999999999e+01 7.1781600000000001e+00 0 0 0
6085 444 4 0.0000000000000000e+00 2.5366499999999998e+00 1.6117039999999999e+01 2.3926400000000001e+00 0 0 0
6087 444 4 0.0000000000000000e+00 8.4509000000000001e-01 1.6117039999999999e+01 4.7824499999999999e+00 0 0 0
6014 444 3 1.0000000000000000e+00 4.0026407395547903e+00 1.6196006818291480e+01 1.2277528381539190e+01 1 0 0
5892 444 1 4.1499999999999998e-01 3.8204794404387847e+00 1.3779118667508392e+01 1.3596116344428930e+01 1 5 0
5294 444 1 4.1499999999999998e-01 2.0479904500548445e+00 1.3977900968485701e+01 1.0807835461377378e+01 -1 0 0
5891 444 1 4.1499999999999998e-01 2.8758891165212566e+00 1.4255815792386784e+01 1.4678892469012762e+01 1 5 0
5890 444 2 -8.2999999999999996e-01 3.1366064078819913e+00 1.4424928469644758e+01 1.3773541827334967e+01 1 5 0
4126 444 2 -8.2999999999999996e-01 5.3340609097200700e+00 1.4903370091904156e+01 1.0439718077106829e+01 -2 0 0
5293 444 2 -8.2999999999999996e-01 2.1235577905532157e+00 1.3045830992794597e+01 1.0603465702962353e+01 -1 0 0
4127 444 1 4.1499999999999998e-01 5.1380164000925310e+00 1.4027448903743887e+01 1.0772225109985627e+01 -2 0 0
2186 444 1 4.1499999999999998e-01 5.4977065563755714e+00 1.6484184348585543e+01 1.4757765400933870e+01 -2 -3 0
2185 444 2 -8.2999999999999996e-01 5.0690913246147700e+00 1.6166442448321263e+01 1.5552473795758836e+01 -2 -3 0