LAMMPS data file via write_data, version 11 Aug 2017, timestep = 5000000

7164 atoms
4 atom types
4000 bonds
1 bond types
2000 angles
1 angle types

0.0000000000000000e+00 4.5679949999999998e+01 xlo xhi
0.0000000000000000e+00 4.6885919999999999e+01 ylo yhi
0.0000000000000000e+00 6.5000000000000000e+01 zlo zhi

Masses

1 1.0079
2 15.9994
3 22.9898
4 107.868

Bond Coeffs # harmonic

1 450 0.9572

Angle Coeffs # harmonic

1 55 104.52

Atoms # full

6013 444 4 0.0000000000000000e+00 1.6907200000000000e+00 0.0000000000000000e+00 0.0000000000000000e+00 0 0 0
6014 444 4 0.0000000000000000e+00 4.2285000000000004e+00 1.4651900000000000e+00 0.0000000000000000e+00 0 0 0
6015 444 4 -4.1669999999999999e-02 1.6907700000000001e+00 0.0000000000000000e+00 7.1781499999999996e+00 0 0 0
6016 444 4 -4.1669999999999999e-02 4.2285500000000003e+00 1.4651900000000000e+00 7.1781499999999996e+00 0 0 0
6017 444 4 0.0000000000000000e+00 2.5366499999999998e+00 1.4651900000000000e+00 2.3926400000000001e+00 0 0 0
6018 444 4 0.0000000000000000e+00 5.0744199999999999e+00 0.0000000000000000e+00 2.3926400000000001e+00 0 0 0
6019 444 4 0.0000000000000000e+00 8.4509000000000001e-01 1.4651900000000000e+00 4.7824200000000001e+00 0 0 0
6020 444 4 0.0000000000000000e+00 3.3828600000000000e+00 0.0000000000000000e+00 4.7824499999999999e+00 0 0 0
6021 444 4 0.0000000000000000e+00 1.6907200000000000e+00 2.9303699999999999e+00 0.0000000000000000e+00 0 0 0
6022 444 4 0.0000000000000000e+00 4.2285000000000004e+00 4.3955599999999997e+00 0.0000000000000000e+00 0 0 0
6023 444 4 -4.1669999999999999e-02 1.6907700000000001e+00 2.9303699999999999e+00 7.1781899999999998e+00 0 0 0
6024 444 4 -4.1669999999999999e-02 4.2285500000000003e+00 4.3955599999999997e+00 7.1781600000000001e+00 0 0 0
6025 444 4 0.0000000000000000e+00 2.5366499999999998e+00 4.3955599999999997e+00 2.3926400000000001e+00 0 0 0
6026 444 4 0.0000000000000000e+00 5.0744199999999999e+00 2.9303699999999999e+00 2.3926400000000001e+00 0 0 0
6027 444 4 0.0000000000000000e+00 8.4509000000000001e-01 4.3955599999999997e+00 4.7824499999999999e+00 0 0 0
6028 444 4 0.0000000000000000e+00 3.3828700000000000e+00 2.9303699999999999e+00 4.7824400000000002e+00 0 0 0
6029 444 4 0.0000000000000000e+00 1.6907200000000000e+00 5.8607399999999998e+00 0.0000000000000000e+00 0 0 0
6030 444 4 0.0000000000000000e+00 4.2285000000000004e+00 7.3259299999999996e+00 0.0000000000000000e+00 0 0 0
6031 444 4 -4.1669999999999999e-02 1.6907700000000001e+00 5.8607399999999998e+00 7.1781499999999996e+00 0 0 0
6032 444 4 -4.1669999999999999e-02 4.2285500000000003e+00 7.3259299999999996e+00 7.1781499999999996e+00 0 0 0
6033 444 4 0.0000000000000000e+00 2.5366499999999998e+00 7.3259299999999996e+00 2.3926400000000001e+00 0 0 0
6034 444 4 0.0000000000000000e+00 5.0744199999999999e+00 5.8607399999999998e+00 2.3926400000000001e+00 0 0 0
6035 444 4 0.0000000000000000e+00 8.4509000000000001e-01 7.3259299999999996e+00 4.7824200000000001e+00 0 0 0
6036 444 4 0.0000000000000000e+00 3.3828600000000000e+00 5.8607399999999998e+00 4.7824499999999999e+00 0 0 0
6141 444 4 0.0000000000000000e+00 6.7662699999999996e+00 0.0000000000000000e+00 0.0000000000000000e+00 0 0 0
6143 444 4 -4.1669999999999999e-02 6.7663200000000003e+00 0.0000000000000000e+00 7.1781499999999996e+00 0 0 0
6145 444 4 0.0000000000000000e+00 7.6121999999999996e+00 1.4651900000000000e+00 2.3926400000000001e+00 0 0 0
6147 444 4 0.0000000000000000e+00 5.9206399999999997e+00 1.4651900000000000e+00 4.7824200000000001e+00 0 0 0
6149 444 4 0.0000000000000000e+00 6.7662699999999996e+00 2.9303699999999999e+00 0.0000000000000000e+00 0 0 0
6151 444 4 -4.1669999999999999e-02 6.7663200000000003e+00 2.9303699999999999e+00 7.1781899999999998e+00 0 0 0
6153 444 4 0.0000000000000000e+00 7.6121999999999996e+00 4.3955599999999997e+00 2.3926400000000001e+00 0 0 0
6155 444 4 0.0000000000000000e+00 5.9206399999999997e+00 4.3955599999999997e+00 4.7824499999999999e+00 0 0 0
6157 444 4 0.0000000000000000e+00 6.7662699999999996e+00 5.8607399999999998e+00 0.0000000000000000e+00 0 0 0
6159 444 4 -4.1669999999999999e-02 6.7663200000000003e+00 5.8607399999999998e+00 7.1781499999999996e+00 0 0 0
6161 444 4 0.0000000000000000e+00 7.6121999999999996e+00 7.3259299999999996e+00 2.3926400000000001e+00 0 0 0
6163 444 4 0.0000000000000000e+00 5.9206399999999997e+00 7.3259299999999996e+00 4.7824200000000001e+00 0 0 0
6142 444 4 0.0000000000000000e+00 9.3040500000000002e+00 1.4651900000000000e+00 0.0000000000000000e+00 0 0 0
6144 444 4 -4.1669999999999999e-02 9.3041000000000000e+00 1.4651900000000000e+00 7.1781499999999996e+00 0 0 0
6146 444 4 0.0000000000000000e+00 1.0149970000000000e+01 0.0000000000000000e+00 2.3926400000000001e+00 0 0 0
6148 444 4 0.0000000000000000e+00 8.4584100000000007e+00 0.0000000000000000e+00 4.7824499999999999e+00 0 0 0
6150 444 4 0.0000000000000000e+00 9.3040500000000002e+00 4.3955599999999997e+00 0.0000000000000000e+00 0 0 0
6152 444 4 -4.1669999999999999e-02 9.3041000000000000e+00 4.3955599999999997e+00 7.1781600000000001e+00 0 0 0
6154 444 4 0.0000000000000000e+00 1.0149970000000000e+01 2.9303699999999999e+00 2.3926400000000001e+00 0 0 0
6156 444 4 0.0000000000000000e+00 8.4584200000000003e+00 2.9303699999999999e+00 4.7824400000000002e+00 0 0 0
6158 444 4 0.0000000000000000e+00 9.3040500000000002e+00 7.3259299999999996e+00 0.0000000000000000e+00 0 0 0
6160 444 4 -4.1669999999999999e-02 9.3041000000000000e+00 7.3259299999999996e+00 7.1781499999999996e+00 0 0 0
6162 444 4 0.0000000000000000e+00 1.0149970000000000e+01 5.8607399999999998e+00 2.3926400000000001e+00 0 0 0
6164 444 4 0.0000000000000000e+00 8.4584100000000007e+00 5.8607399999999998e+00 4.7824499999999999e+00 0 0 0
6275 444 4 0.0000000000000000e+00 1.0996190000000000e+01 1.4651900000000000e+00 4.7824200000000001e+00 0 0 0
6283 444 4 0.0000000000000000e+00 1.0996190000000000e+01 4.3955599999999997e+00 4.7824499999999999e+00 0 0 0
6291 444 4 0.0000000000000000e+00 1.0996190000000000e+01 7.3259299999999996e+00 4.7824200000000001e+00 0 0 0
759 444 1 4.1499999999999998e-01 8.2494684074364901e+00 2.4176229425284363e+00 1.0209201087718808e+01 0 2 0
1978 444 2 -8.2999999999999996e-01 3.9754863246931076e+00 1.9595729738380998e+00 1.5390526443463687e+01 -4 3 0
70 444 2 -8.2999999999999996e-01 1.6163057555581064e+00 5.5890438862621332e+00 1.3366358396928131e+01 -5 3 0
1424 444 1 4.1499999999999998e-01 6.4787663083105356e+00 4.5101186471481629e+00 9.7014400211707166e+00 0 -1 0
1423 444 2 -8.2999999999999996e-01 6.3844017602326337e+00 5.3161463260688162e+00 1.0209029590302174e+01 0 -1 0
1399 444 2 -8.2999999999999996e-01 3.0364989433007312e+00 2.7497059323906532e+00 1.0544893402029990e+01 1 -6 0
3649 444 2 -8.2999999999999996e-01 7.2405484247936203e+00 3.4625154349970799e+00 1.2595497925083517e+01 1 3 0
3650 444 1 4.1499999999999998e-01 7.2866885447115459e+00 3.2970533454659594e+00 1.1653836897346272e+01 1 3 0
1425 444 1 4.1499999999999998e-01 7.2426163539165040e+00 5.4478803870945143e+00 1.0611951542547850e+01 0 -1 0
1979 444 1 4.1499999999999998e-01 3.1637590270938900e+00 2.4256585211266519e+00 1.5190289416689090e+01 -4 3 0
3287 444 1 4.1499999999999998e-01 4.3911834543989645e+00 5.1277100165612994e+00 1.1869169061266547e+01 2 6 0
3288 444 1 4.1499999999999998e-01 5.5481816582861097e+00 4.5313115391566914e+00 1.2642188779855495e+01 2 6 0
3286 444 2 -8.2999999999999996e-01 4.6724628554123226e+00 4.9007776246023989e+00 1.2755519096439620e+01 2 6 0
3651 444 1 4.1499999999999998e-01 7.8407935730955476e+00 2.8242943448079560e+00 1.2981000044345103e+01 1 3 0
8 444 1 4.1499999999999998e-01 4.1732019750395715e+00 5.8161730677472443e+00 9.8717864450316331e+00 3 5 0
72 444 1 4.1499999999999998e-01 2.2835205559031806e+00 4.9156897025072634e+00 1.3499213565457465e+01 -5 3 0
1400 444 1 4.1499999999999998e-01 3.1538213585909798e+00 3.6916613136711667e+00 1.0668134398115532e+01 1 -6 0
1401 444 1 4.1499999999999998e-01 3.9065280468385648e+00 2.3783443011819601e+00 1.0691087108231166e+01 1 -6 0
4581 444 1 4.1499999999999998e-01 9.4192205145781145e+00 4.8910098506511872e+00 1.5689533375120398e+01 3 2 0
3716 444 1 4.1499999999999998e-01 6.4621528729834647e+00 1.9135058936474343e+00 1.6217783248893866e+01 -2 2 0
3715 444 2 -8.2999999999999996e-01 7.1793107595555510e+00 2.5015370019585665e+00 1.5980852527123400e+01 -2 2 0
3717 444 1 4.1499999999999998e-01 6.8080554442988870e+00 3.0747222974847874e+00 1.5310136413456787e+01 -2 2 0
71 444 1 4.1499999999999998e-01 2.0536380076423346e+00 6.2601505980948851e+00 1.2842346762286621e+01 -5 3 0
757 444 2 -8.2999999999999996e-01 7.7190521493369237e+00 3.0620845748516756e+00 9.7406281489148654e+00 0 2 0
207 444 1 4.1499999999999998e-01 9.3553303789797226e+00 5.3633140219687849e+00 1.3398649787892895e+01 -5 -4 0
758 444 1 4.1499999999999998e-01 8.3333213884370760e+00 3.4908505020222531e+00 9.1447545195984432e+00 0 2 0
205 444 2 -8.2999999999999996e-01 8.4463889533628809e+00 5.6118543345631089e+00 1.3566835212169780e+01 -5 -4 0
2296 444 2 -8.2999999999999996e-01 1.0871364758729786e+01 5.0671460128629340e+00 1.2626149034641168e+01 2 1 0
3045 444 1 4.1499999999999998e-01 9.0255652118303047e+00 1.0383777881268452e+00 1.3983213586457833e+01 -2 -4 0
4580 444 1 4.1499999999999998e-01 1.0646815714636807e+01 4.0690180138240457e+00 1.6020040121570421e+01 3 2 0
3043 444 2 -8.2999999999999996e-01 9.2379685669130094e+00 1.6674171313828858e+00 1.3293701085672959e+01 -2 -4 0
4061 444 1 4.1499999999999998e-01 4.1396261493632880e-01 6.5830148361203040e+00 1.4490517728015073e+01 1 2 0
947 444 1 4.1499999999999998e-01 6.7472107509718859e-01 1.9355962240770563e+00 1.0465675096839149e+01 0 4 0
3923 444 1 4.1499999999999998e-01 9.7886124746183896e+00 5.8998365758226186e+00 9.5092744666511937e+00 0 -3 0
3922 444 2 -8.2999999999999996e-01 9.5474582969251589e+00 6.5382965705970184e+00 1.0180426855673620e+01 0 -3 0
2297 444 1 4.1499999999999998e-01 1.0759055529370663e+01 4.3529487780645484e+00 1.1998820756537087e+01 2 1 0
598 444 2 -8.2999999999999996e-01 1.0666069375035439e+01 2.9423668246219643e+00 1.1070631932884178e+01 -4 0 0
7 444 2 -8.2999999999999996e-01 3.4559309719754099e+00 5.4371836146900741e+00 1.0379842944230969e+01 3 5 0
2298 444 1 4.1499999999999998e-01 1.1067808216486423e+01 5.8324729010766037e+00 1.2085856128539328e+01 2 1 0
3044 444 1 4.1499999999999998e-01 8.7668532993282344e+00 1.3480777318497350e+00 1.2524087029353266e+01 -2 -4 0
5355 444 1 4.1499999999999998e-01 1.1871963643232848e+00 3.2529299617219189e+00 1.4810084436183024e+01 3 2 0
9 444 1 4.1499999999999998e-01 2.8470019970046736e+00 6.1634248678639354e+00 1.0514052365318511e+01 3 5 0
623 444 1 4.1499999999999998e-01 1.5577844033844230e+00 6.9979556859386962e+00 1.6237679411327282e+01 -5 5 0
622 444 2 -8.2999999999999996e-01 2.1460241270101124e+00 7.4899228102987987e+00 1.5664814454310742e+01 -5 5 0
561 444 1 4.1499999999999998e-01 5.6800856672031665e+00 5.0328412461790517e-01 1.0653634256430662e+01 -2 -3 0
560 444 1 4.1499999999999998e-01 6.0686150026982046e+00 1.9127378998887032e+00 1.0260721922543642e+01 -2 -3 0
206 444 1 4.1499999999999998e-01 7.9439050773689415e+00 4.8158225327322501e+00 1.3393411260353265e+01 -5 -4 0
127 444 2 -8.2999999999999996e-01 9.0914665314187282e+00 5.4345737132189764e-02 1.5505048335539847e+01 0 0 0
559 444 2 -8.2999999999999996e-01 5.3869059308788048e+00 1.4127572001577167e+00 1.0709635973060159e+01 -2 -3 0
4121 444 1 4.1499999999999998e-01 7.4572903906061496e+00 6.1976123615354322e+00 1.5292256504799347e+01 5 2 0
3924 444 1 4.1499999999999998e-01 1.0381913271066084e+01 6.9017221849141634e+00 1.0476804836854910e+01 0 -3 0
2729 444 1 4.1499999999999998e-01 5.5187991066595634e+00 7.0994192190377419e+00 1.3622875298906044e+01 -1 5 0
5353 444 2 -8.2999999999999996e-01 1.9799502480038329e+00 3.4946559515001918e+00 1.5288981167691739e+01 3 2 0
5354 444 1 4.1499999999999998e-01 1.9065564487878233e+00 4.4410150086737250e+00 1.5412471584487077e+01 3 2 0
604 444 2 -8.2999999999999996e-01 1.7166901886753350e+00 7.4368838851574779e+00 1.0473202170665076e+01 1 -2 0
2523 444 1 4.1499999999999998e-01 9.2483775997796585e+00 7.4713287920698101e-03 1.1036360145869113e+01 -1 -1 0
2877 444 1 4.1499999999999998e-01 7.3358218186080260e-01 5.7989307216177934e+00 1.0415040185937192e+01 1 1 0
1901 444 1 4.1499999999999998e-01 4.7752865259190740e+00 1.1669595767359366e+00 1.3803865262672275e+01 -5 0 0
4218 444 1 4.1499999999999998e-01 6.1392567556947846e+00 7.2619179497808464e+00 1.0311140767167725e+01 -3 2 0
2876 444 1 4.1499999999999998e-01 8.9567629243943014e-01 4.5036560848714524e+00 9.6483040206899400e+00 1 1 0
4736 444 1 4.1499999999999998e-01 2.2054815050610357e-01 1.6230678636135676e+00 1.2575509069194243e+01 1 0 0
246 444 1 4.1499999999999998e-01 1.0985400092203237e+01 2.1810074774407520e+00 1.3715256544543866e+01 1 -1 0
421 444 2 -8.2999999999999996e-01 4.2218239799683746e+00 5.9520946168415456e+00 1.5513306290203809e+01 4 0 0
422 444 1 4.1499999999999998e-01 4.4083062692231607e+00 5.6671141963831291e+00 1.4618743735901971e+01 4 0 0
423 444 1 4.1499999999999998e-01 3.4186173984413499e+00 6.4673583161185029e+00 1.5438511973078215e+01 4 0 0
1900 444 2 -8.2999999999999996e-01 5.0238585774487179e+00 4.2659628437717556e-01 1.3250415428833207e+01 -5 0 0
2875 444 2 -8.2999999999999996e-01 3.6232659959578750e-01 4.9213108124638083e+00 1.0324569338473076e+01 1 1 0
4120 444 2 -8.2999999999999996e-01 7.7810745861286952e+00 6.3586161531819947e+00 1.6178525866387815e+01 5 2 0
600 444 1 4.1499999999999998e-01 1.0279902369400920e+01 2.3706889075803419e+00 1.1734176481873511e+01 -4 0 0
1902 444 1 4.1499999999999998e-01 5.0536497453502127e+00 7.8840800757881091e-01 1.2364730755677030e+01 -5 0 0
1403 444 1 4.1499999999999998e-01 2.6818314058129848e+00 7.6705199569320759e-01 1.0498819339270522e+01 1 1 0
2521 444 2 -8.2999999999999996e-01 8.4857672266102711e+00 5.8369332511691707e-01 1.0985115516781914e+01 -1 -1 0
4122 444 1 4.1499999999999998e-01 8.2002087555275143e+00 7.2177194782036311e+00 1.6128527329286506e+01 5 2 0
5865 444 1 4.1499999999999998e-01 1.1108467635554243e+01 7.4986817003903532e+00 1.4100678659512482e+01 -5 1 0
605 444 1 4.1499999999999998e-01 9.3036233002739799e-01 7.7769643754928888e+00 1.0046275979324433e+01 1 -2 0
2522 444 1 4.1499999999999998e-01 7.8333326740987870e+00 7.5968352836454756e-02 1.0502645616520306e+01 -1 -1 0
4579 444 2 -8.2999999999999996e-01 9.7551377490352156e+00 4.2508032679036933e+00 1.6316850745563162e+01 3 2 0
2091 444 1 4.1499999999999998e-01 1.3864647168215241e-01 7.6946208868819612e+00 2.3035123848391891e+01 -6 -3 0
3978 444 1 4.1499999999999998e-01 2.3789019345977938e+00 5.5681666550130149e-01 1.9613615194622199e+01 3 4 0
5186 444 1 4.1499999999999998e-01 6.2165158846298230e-01 5.1758271363287394e+00 1.7945605049247916e+01 6 3 0
2946 444 1 4.1499999999999998e-01 5.1453574068494889e+00 6.9616799258117812e+00 2.0312957648850798e+01 8 0 0
2294 444 1 4.1499999999999998e-01 9.6109150179896119e+00 1.4756937877088803e+00 2.1919710485097465e+01 -1 1 0
1980 444 1 4.1499999999999998e-01 4.0077778951810599e+00 1.9337932028994471e+00 1.6346834207642953e+01 -4 3 0
4418 444 1 4.1499999999999998e-01 3.5125673010342164e+00 4.1735660801794348e+00 1.9221961499230936e+01 0 0 0
128 444 1 4.1499999999999998e-01 8.9374968252244322e+00 6.2975206851274856e-01 1.6254336478042458e+01 0 0 0
2520 444 1 4.1499999999999998e-01 8.5552096066257608e+00 6.3977814706441505e+00 1.7850044917808276e+01 0 1 0
2295 444 1 4.1499999999999998e-01 9.9094984728740165e+00 9.9025998433741069e-01 2.3322242855487758e+01 -1 1 0
4607 444 1 4.1499999999999998e-01 3.7088773758101281e+00 2.0929358906493238e+00 2.0600014696664037e+01 3 -3 0
107 444 1 4.1499999999999998e-01 8.3359979336772270e+00 6.3002909469391346e+00 2.0389407316787935e+01 0 3 0
3672 444 1 4.1499999999999998e-01 8.3507200272777897e+00 1.8751570139831226e+00 1.7083889474934917e+01 1 2 0
3671 444 1 4.1499999999999998e-01 9.6605276058849050e+00 2.5490576652015289e+00 1.7433399396252486e+01 1 2 0
3670 444 2 -8.2999999999999996e-01 9.1768103791661577e+00 1.7306942379305572e+00 1.7545340561799783e+01 1 2 0
5860 444 2 -8.2999999999999996e-01 2.7180536550905976e+00 6.7210787963143570e-01 2.4046012064148101e+01 4 -3 0
6008 444 3 1.0000000000000000e+00 5.5024237597545147e+00 6.0740110657136475e+00 1.7488643603503434e+01 0 0 0
108 444 1 4.1499999999999998e-01 7.1894343539420378e+00 6.1287992521071226e+00 2.1362997606372023e+01 0 3 0
4629 444 1 4.1499999999999998e-01 4.4648306834902733e+00 6.8398226253992167e-01 1.8078613831956122e+01 5 1 0
106 444 2 -8.2999999999999996e-01 8.0683991649101738e+00 5.8060748658293448e+00 2.1164245486592279e+01 0 3 0
2350 444 2 -8.2999999999999996e-01 5.5268636782428233e+00 6.2095913268210206e+00 2.2244635564781163e+01 -2 1 0
1173 444 1 4.1499999999999998e-01 7.6344447948949883e+00 1.8585805682477186e+00 2.3113496557758328e+01 0 -1 0
1172 444 1 4.1499999999999998e-01 6.5097952710551619e+00 2.0964440307361052e+00 2.2128367329669199e+01 0 -1 0
1171 444 2 -8.2999999999999996e-01 6.7051319997784686e+00 2.0828327254637884e+00 2.3065325212065851e+01 0 -1 0
5861 444 1 4.1499999999999998e-01 2.0847413568194439e+00 9.5546497274712072e-01 2.3386575213726154e+01 4 -3 0
4627 444 2 -8.2999999999999996e-01 4.4056704644809361e+00 1.5897579458872966e+00 1.7774800597258544e+01 5 1 0
1748 444 1 4.1499999999999998e-01 9.5634750184108768e+00 8.7118041643314525e-01 1.9407573032611491e+01 0 -1 0
664 444 2 -8.2999999999999996e-01 9.1667396383648203e+00 4.5946990855908671e+00 2.3176817440423765e+01 2 4 0
4383 444 1 4.1499999999999998e-01 4.8574722533036843e+00 4.0391040343502755e+00 2.0525924745446481e+01 -2 -3 0
4815 444 1 4.1499999999999998e-01 6.3222669199944974e+00 3.6736993804939688e+00 1.8740701223583294e+01 -3 -3 0
4813 444 2 -8.2999999999999996e-01 6.7826297797815140e+00 4.3269816785732553e+00 1.8213899201619078e+01 -3 -3 0
4814 444 1 4.1499999999999998e-01 7.5734254644164185e+00 3.8790812105963597e+00 1.7913467338880526e+01 -3 -3 0
4381 444 2 -8.2999999999999996e-01 5.7477171861615428e+00 3.7131865894150442e+00 2.0658113108547365e+01 -2 -3 0
4382 444 1 4.1499999999999998e-01 6.2170071804744644e+00 4.4493916135406275e+00 2.1050542740161234e+01 -2 -3 0
4628 444 1 4.1499999999999998e-01 4.1961482494184175e+00 2.0934916426511627e+00 1.8561302293873574e+01 5 1 0
665 444 1 4.1499999999999998e-01 9.1833461752746519e+00 3.6408480112655881e+00 2.3098560214951956e+01 2 4 0
4417 444 2 -8.2999999999999996e-01 3.7057377366770705e+00 5.0441272781343995e+00 1.8874053228489817e+01 0 0 0
5187 444 1 4.1499999999999998e-01 9.3869580679431497e-01 6.5054241165154201e+00 1.8596412229033881e+01 6 3 0
2352 444 1 4.1499999999999998e-01 5.7135561415271932e+00 5.5738530966063022e+00 2.2935442816389067e+01 -2 1 0
666 444 1 4.1499999999999998e-01 8.7140050121021346e+00 4.8923855364066950e+00 2.2387738228407549e+01 2 4 0
3168 444 1 4.1499999999999998e-01 6.7026218770034862e-01 5.2961403514917089e+00 2.3362775752558889e+01 -1 -1 0
4606 444 2 -8.2999999999999996e-01 3.0879786980868351e+00 2.7054007001296951e+00 2.0205548528422842e+01 3 -3 0
2519 444 1 4.1499999999999998e-01 9.8684102067435919e+00 6.1391244848677200e+00 1.8557501771575851e+01 0 1 0
4608 444 1 4.1499999999999998e-01 2.2937525760234658e+00 2.6143731823825092e+00 2.0731999546344735e+01 3 -3 0
5185 444 2 -8.2999999999999996e-01 1.3500290005183104e+00 5.7574853784590454e+00 1.8163255792363568e+01 6 3 0
2518 444 2 -8.2999999999999996e-01 9.0491340670846867e+00 6.6276798297389226e+00 1.8637075330001522e+01 0 1 0
1747 444 2 -8.2999999999999996e-01 9.5404775334819067e+00 4.4364725440773967e-01 2.0263679745680626e+01 0 -1 0
2293 444 2 -8.2999999999999996e-01 9.3431748162843622e+00 1.5862463692234288e+00 2.2832029041813428e+01 -1 1 0
3690 444 1 4.1499999999999998e-01 3.7143362311470157e-01 2.4435346971361316e+00 1.8930138114665191e+01 4 3 0
2351 444 1 4.1499999999999998e-01 5.0026877501865270e+00 6.8849050780345467e+00 2.2675242999825269e+01 -2 1 0
4419 444 1 4.1499999999999998e-01 2.8469833529908146e+00 5.4260659481033624e+00 1.8692681722586116e+01 0 0 0
5293 444 2 -8.2999999999999996e-01 1.3933845059782690e+00 2.2330923060274235e+00 2.2190301526766472e+01 2 -1 0
5294 444 1 4.1499999999999998e-01 1.2620026305052940e+00 2.9158993554464239e+00 2.2848135174195413e+01 2 -1 0
4532 444 1 4.1499999999999998e-01 5.1745050964346335e+00 1.8775331061212028e-01 2.0635779395134854e+01 2 -6 0
4531 444 2 -8.2999999999999996e-01 4.2758371820148726e+00 4.9767817614580051e-01 2.0747915107190412e+01 2 -6 0
4849 444 2 -8.2999999999999996e-01 1.0917601061451137e+01 6.6925844670083912e+00 2.2199453116264024e+01 -1 -2 0
3976 444 2 -8.2999999999999996e-01 1.8085263645461529e+00 1.1536164989383078e-01 1.8984312915884967e+01 3 4 0
4851 444 1 4.1499999999999998e-01 1.0358144279804158e+01 5.9290210453625631e+00 2.2341619317170402e+01 -1 -2 0
5215 444 2 -8.2999999999999996e-01 1.1436453144183834e+00 2.2506705870746107e+00 1.7521022261611289e+01 0 0 0
4018 444 2 -8.2999999999999996e-01 5.8767492297438482e+00 4.3802153134316475e+00 2.4157834186339834e+01 7 1 0
4020 444 1 4.1499999999999998e-01 6.1748206298400339e+00 3.6335718263441952e+00 2.3638306706219630e+01 7 1 0
3167 444 1 4.1499999999999998e-01 2.0163497078039376e+00 4.7863289175360260e+00 2.3831856163456798e+01 -1 -1 0
3166 444 2 -8.2999999999999996e-01 1.1276061156461854e+00 4.4972085902125700e+00 2.3625030452803724e+01 -1 -1 0
5295 444 1 4.1499999999999998e-01 6.5522319392865214e-01 2.3336751654089158e+00 2.1589275087327010e+01 2 -1 0
4850 444 1 4.1499999999999998e-01 1.0323407260096316e+01 7.4404236106179402e+00 2.2261925959019326e+01 -1 -2 0
3977 444 1 4.1499999999999998e-01 1.6355471183775612e+00 7.7542759448491128e-01 1.8313027485981305e+01 3 4 0
5216 444 1 4.1499999999999998e-01 1.7820510083335286e+00 2.7634977087986670e+00 1.7025361807576367e+01 0 0 0
5217 444 1 4.1499999999999998e-01 3.5023181351580468e-01 2.2733525589920038e+00 1.6986033221647908e+01 0 0 0
2944 444 2 -8.2999999999999996e-01 5.5748277429786466e+00 7.4659699141955294e+00 1.9621959190086894e+01 8 0 0
1005 444 1 4.1499999999999998e-01 5.3561437780366211e-03 5.5283512915482564e+00 3.0932876892710112e+01 3 -2 0
3911 444 1 4.1499999999999998e-01 4.4068873607994110e+00 2.4983032552913564e+00 3.2289373122183598e+01 2 3 0
4676 444 1 4.1499999999999998e-01 3.8434433941607238e-01 3.3633225875287667e+00 2.6064913002120985e+01 -1 4 0
4675 444 2 -8.2999999999999996e-01 2.6316712797122682e-01 3.8969904091331671e+00 2.6850245307312125e+01 -1 4 0
2291 444 1 4.1499999999999998e-01 1.1127854636406660e+01 7.7432397936455368e+00 2.8216792519598734e+01 4 -3 0
4443 444 1 4.1499999999999998e-01 4.1739243317031356e+00 7.3542685576102826e+00 3.0529209423703591e+01 4 0 0
3653 444 1 4.1499999999999998e-01 9.8320966339007505e+00 5.4349708140247497e+00 2.4820215005614351e+01 3 0 0
3652 444 2 -8.2999999999999996e-01 1.0205281019845437e+01 5.7083010220986932e+00 2.5658222742235772e+01 3 0 0
4019 444 1 4.1499999999999998e-01 6.3227562312017049e+00 4.2806985338390753e+00 2.4998908509685325e+01 7 1 0
5392 444 2 -8.2999999999999996e-01 6.6254299923518660e+00 3.5171477489288248e-02 2.7655644026060649e+01 -2 -2 0
1068 444 1 4.1499999999999998e-01 1.9051469884801182e+00 7.2234975659210692e+00 2.5726082160293895e+01 -4 2 0
5862 444 1 4.1499999999999998e-01 2.3942047455843487e+00 1.0453866271482219e+00 2.4865778379540490e+01 4 -3 0
5394 444 1 4.1499999999999998e-01 6.3737225517887248e+00 2.6502252060508247e-01 2.6761192018154436e+01 -2 -2 0
3074 444 1 4.1499999999999998e-01 9.1523248447466177e+00 6.5317511447857435e-01 3.1313466910096182e+01 5 1 0
5913 444 1 4.1499999999999998e-01 9.9937472332098878e+00 7.1984666019354169e+00 2.4963179250923321e+01 -1 3 0
3677 444 1 4.1499999999999998e-01 4.9804146059683019e+00 1.0070006337452204e+00 3.0516374832299686e+01 3 0 0
5831 444 1 4.1499999999999998e-01 5.6719999859310599e+00 1.6006491658541497e+00 2.4378226142282301e+01 -1 -3 0
5832 444 1 4.1499999999999998e-01 4.3815478127420739e+00 9.2540048744926329e-01 2.4791345749262998e+01 -1 -3 0
3364 444 2 -8.2999999999999996e-01 2.4529910666467880e+00 1.5036847344475273e+00 2.9430005483792346e+01 -2 -2 0
589 444 2 -8.2999999999999996e-01 1.0119443263464728e+01 2.0797340188580806e+00 3.0407741863052948e+01 -2 -4 0
3676 444 2 -8.2999999999999996e-01 4.7718423752056625e+00 1.9410547690759417e+00 3.0532894229768203e+01 3 0 0
3202 444 2 -8.2999999999999996e-01 1.0869368498282862e+01 1.2098113354339768e+00 2.6923996089670737e+01 4 5 0
5830 444 2 -8.2999999999999996e-01 5.2425877650677961e+00 1.1799281113898772e+00 2.5123096423607279e+01 -1 -3 0
591 444 1 4.1499999999999998e-01 1.1031771630007663e+01 1.8280273650854473e+00 3.0264449953478199e+01 -2 -4 0
3560 444 1 4.1499999999999998e-01 7.5222197646722648e+00 6.2994616612344867e+00 2.6772390255015953e+01 -2 1 0
2723 444 1 4.1499999999999998e-01 7.9923852143497411e+00 1.5238301026627521e+00 2.8081689532104637e+01 4 -1 0
2724 444 1 4.1499999999999998e-01 7.7967130333310815e+00 2.8567149419442908e+00 2.8772359974254140e+01 4 -1 0
3559 444 2 -8.2999999999999996e-01 7.6548951688179736e+00 5.5578668183252224e+00 2.7362869920706398e+01 -2 1 0
3561 444 1 4.1499999999999998e-01 8.5964530758008220e+00 5.3890307017058303e+00 2.7328297732823955e+01 -2 1 0
5349 444 1 4.1499999999999998e-01 3.7037249642432251e+00 6.1485976568877332e+00 2.5095072180804305e+01 -1 -2 0
5347 444 2 -8.2999999999999996e-01 3.4344496992335891e+00 5.2701581818597356e+00 2.4826619349042179e+01 -1 -2 0
548 444 1 4.1499999999999998e-01 1.6395150361971258e+00 8.4151497060406144e-01 2.8207127893704754e+01 1 6 0
5348 444 1 4.1499999999999998e-01 4.2339037521303942e+00 4.8670500132341479e+00 2.4488078164016500e+01 -1 -2 0
3678 444 1 4.1499999999999998e-01 5.6195308165423707e+00 2.3777503327893053e+00 3.0449502254930014e+01 3 0 0
3203 444 1 4.1499999999999998e-01 1.0128777753197379e+01 1.7479692429177511e+00 2.7203538322983569e+01 4 5 0
5701 444 2 -8.2999999999999996e-01 2.6486543202779349e+00 4.4111457406166785e+00 3.0125150267500384e+01 -2 1 0
194 444 1 4.1499999999999998e-01 9.0724558551018504e+00 5.8382520605240709e+00 3.2066708831217007e+01 -4 -2 0
5774 444 1 4.1499999999999998e-01 1.9290774031667699e+00 4.4833802786278021e+00 2.7227305113335031e+01 3 -4 0
193 444 2 -8.2999999999999996e-01 8.9483012982323960e+00 6.7616245376427724e+00 3.1847162305497960e+01 -4 -2 0
547 444 2 -8.2999999999999996e-01 1.0633828407636019e+00 4.5580429969647590e-01 2.7547180277409314e+01 1 6 0
5775 444 1 4.1499999999999998e-01 3.3117093704182521e+00 4.8285164078190688e+00 2.6716320411802801e+01 3 -4 0
5773 444 2 -8.2999999999999996e-01 2.7212996520168917e+00 4.9692778002498139e+00 2.7456479081735058e+01 3 -4 0
1262 444 1 4.1499999999999998e-01 7.1540315747793404e+00 5.9135030967172710e+00 2.9004321059253002e+01 3 0 0
3052 444 2 -8.2999999999999996e-01 7.0738000989889036e+00 3.5134168743011709e+00 3.0551442130676261e+01 0 4 0
1261 444 2 -8.2999999999999996e-01 7.0393634261404490e+00 6.0158269816288836e+00 2.9949103701979343e+01 3 0 0
195 444 1 4.1499999999999998e-01 8.3427236710856398e+00 6.7527386393871476e+00 3.1105927823589269e+01 -4 -2 0
3054 444 1 4.1499999999999998e-01 7.1116617697555045e+00 4.4132774806945605e+00 3.0227329265568194e+01 0 4 0
3053 444 1 4.1499999999999998e-01 7.6091836234114210e+00 3.5213902953576017e+00 3.1344873132064784e+01 0 4 0
30 444 1 4.1499999999999998e-01 9.5107032333611770e+00 3.3285453822018556e+00 3.1722945027437547e+01 3 4 0
3654 444 1 4.1499999999999998e-01 1.0932200384207663e+01 5.1033241201879376e+00 2.5805952093150072e+01 3 0 0
5393 444 1 4.1499999999999998e-01 5.8752318964484909e+00 2.9501921652532126e-01 2.8190353480335052e+01 -2 -2 0
2722 444 2 -8.2999999999999996e-01 8.4425968511291849e+00 2.3431462443560505e+00 2.8287268655027841e+01 4 -1 0
590 444 1 4.1499999999999998e-01 9.7171899494494429e+00 2.0279562741542860e+00 2.9540710668625568e+01 -2 -4 0
5703 444 1 4.1499999999999998e-01 2.8669398839584788e+00 4.7270558184892550e+00 2.9248346195806612e+01 -2 1 0
5702 444 1 4.1499999999999998e-01 2.2008219704480325e+00 3.5784833265858276e+00 2.9975644999303125e+01 -2 1 0
3365 444 1 4.1499999999999998e-01 3.3773921343497726e+00 1.7256826551342264e+00 2.9541501846396148e+01 -2 -2 0
28 444 2 -8.2999999999999996e-01 9.1686970670761720e+00 3.8956317063336847e+00 3.2414086661622441e+01 3 4 0
3366 444 1 4.1499999999999998e-01 2.1159708403902822e+00 1.4240926658825102e+00 3.0322369935618621e+01 -2 -2 0
3981 444 1 4.1499999999999998e-01 3.1235370820542347e+00 7.3919986376316009e+00 2.8324377132319938e+01 0 -2 0
1263 444 1 4.1499999999999998e-01 6.3321608999654382e+00 6.6548378872669440e+00 3.0037204204552381e+01 3 0 0
44 444 1 4.1499999999999998e-01 3.0407810320292197e+00 4.7791175959431058e+00 3.1782697677406212e+01 3 3 0
4442 444 1 4.1499999999999998e-01 4.3995487036920604e+00 6.2520699129288824e+00 3.1542198697995367e+01 4 0 0
4441 444 2 -8.2999999999999996e-01 4.7213525645965877e+00 7.1135434048842203e+00 3.1276609085768996e+01 4 0 0
1067 444 1 4.1499999999999998e-01 7.0307493067049132e-01 7.6601080070917797e+00 2.6536198896246798e+01 -4 2 0
4033 444 2 -8.2999999999999996e-01 6.5384581980132817e+00 7.3963605351513229e+00 3.3951809699426988e+01 2 3 0
1962 444 1 4.1499999999999998e-01 8.5952526963783633e+00 3.3710890124330109e-02 3.8210335457614548e+01 4 -2 0
4034 444 1 4.1499999999999998e-01 6.4295983478296934e+00 7.3070463693331718e+00 3.3005023231938715e+01 2 3 0
429 444 1 4.1499999999999998e-01 9.3044084956150321e+00 7.7996612921821971e+00 3.3139187073332700e+01 -2 -2 0
1776 444 1 4.1499999999999998e-01 6.9864426985304817e+00 5.4794056178801629e+00 3.4279734165325827e+01 -2 0 0
5571 444 1 4.1499999999999998e-01 3.0482492599803939e+00 7.5945657690639363e+00 3.3908731919764818e+01 3 2 0
1775 444 1 4.1499999999999998e-01 8.0508359759046737e+00 4.4554091248293668e+00 3.3947478984881577e+01 -2 0 0
4919 444 1 4.1499999999999998e-01 2.1077963326239137e+00 1.9069321731865627e+00 3.3338645491470693e+01 0 -1 0