LAMMPS data file via write_data, version 11 Aug 2017, timestep = 500000

7174 atoms
4 atom types
4000 bonds
1 bond types
2000 angles
1 angle types

0.0000000000000000e+00 4.5679949999999998e+01 xlo xhi
0.0000000000000000e+00 4.6885919999999999e+01 ylo yhi
0.0000000000000000e+00 6.5000000000000000e+01 zlo zhi

Masses

1 1.0079
2 15.9994
3 22.9898
4 107.868

Bond Coeffs # harmonic

1 450 0.9572

Angle Coeffs # harmonic

1 55 104.52

Atoms # full

6023 444 4 0.0000000000000000e+00 1.6907200000000000e+00 0.0000000000000000e+00 0.0000000000000000e+00 0 0 0
6024 444 4 0.0000000000000000e+00 4.2285000000000004e+00 1.4651900000000000e+00 0.0000000000000000e+00 0 0 0
6025 444 4 -7.6390000000000000e-02 1.6907700000000001e+00 0.0000000000000000e+00 7.1781499999999996e+00 0 0 0
6026 444 4 -7.6390000000000000e-02 4.2285500000000003e+00 1.4651900000000000e+00 7.1781499999999996e+00 0 0 0
6027 444 4 0.0000000000000000e+00 2.5366499999999998e+00 1.4651900000000000e+00 2.3926400000000001e+00 0 0 0
6028 444 4 0.0000000000000000e+00 5.0744199999999999e+00 0.0000000000000000e+00 2.3926400000000001e+00 0 0 0
6029 444 4 0.0000000000000000e+00 8.4509000000000001e-01 1.4651900000000000e+00 4.7824200000000001e+00 0 0 0
6030 444 4 0.0000000000000000e+00 3.3828600000000000e+00 0.0000000000000000e+00 4.7824499999999999e+00 0 0 0
6031 444 4 0.0000000000000000e+00 1.6907200000000000e+00 2.9303699999999999e+00 0.0000000000000000e+00 0 0 0
6032 444 4 0.0000000000000000e+00 4.2285000000000004e+00 4.3955599999999997e+00 0.0000000000000000e+00 0 0 0
6033 444 4 -7.6390000000000000e-02 1.6907700000000001e+00 2.9303699999999999e+00 7.1781899999999998e+00 0 0 0
6034 444 4 -7.6390000000000000e-02 4.2285500000000003e+00 4.3955599999999997e+00 7.1781600000000001e+00 0 0 0
6035 444 4 0.0000000000000000e+00 2.5366499999999998e+00 4.3955599999999997e+00 2.3926400000000001e+00 0 0 0
6036 444 4 0.0000000000000000e+00 5.0744199999999999e+00 2.9303699999999999e+00 2.3926400000000001e+00 0 0 0
6037 444 4 0.0000000000000000e+00 8.4509000000000001e-01 4.3955599999999997e+00 4.7824499999999999e+00 0 0 0
6038 444 4 0.0000000000000000e+00 3.3828700000000000e+00 2.9303699999999999e+00 4.7824400000000002e+00 0 0 0
6039 444 4 0.0000000000000000e+00 1.6907200000000000e+00 5.8607399999999998e+00 0.0000000000000000e+00 0 0 0
6040 444 4 0.0000000000000000e+00 4.2285000000000004e+00 7.3259299999999996e+00 0.0000000000000000e+00 0 0 0
6041 444 4 -7.6390000000000000e-02 1.6907700000000001e+00 5.8607399999999998e+00 7.1781499999999996e+00 0 0 0
6042 444 4 -7.6390000000000000e-02 4.2285500000000003e+00 7.3259299999999996e+00 7.1781499999999996e+00 0 0 0
6043 444 4 0.0000000000000000e+00 2.5366499999999998e+00 7.3259299999999996e+00 2.3926400000000001e+00 0 0 0
6044 444 4 0.0000000000000000e+00 5.0744199999999999e+00 5.8607399999999998e+00 2.3926400000000001e+00 0 0 0
6045 444 4 0.0000000000000000e+00 8.4509000000000001e-01 7.3259299999999996e+00 4.7824200000000001e+00 0 0 0
6046 444 4 0.0000000000000000e+00 3.3828600000000000e+00 5.8607399999999998e+00 4.7824499999999999e+00 0 0 0
6151 444 4 0.0000000000000000e+00 6.7662699999999996e+00 0.0000000000000000e+00 0.0000000000000000e+00 0 0 0
6153 444 4 -7.6390000000000000e-02 6.7663200000000003e+00 0.0000000000000000e+00 7.1781499999999996e+00 0 0 0
6155 444 4 0.0000000000000000e+00 7.6121999999999996e+00 1.4651900000000000e+00 2.3926400000000001e+00 0 0 0
6157 444 4 0.0000000000000000e+00 5.9206399999999997e+00 1.4651900000000000e+00 4.7824200000000001e+00 0 0 0
6159 444 4 0.0000000000000000e+00 6.7662699999999996e+00 2.9303699999999999e+00 0.0000000000000000e+00 0 0 0
6161 444 4 -7.6390000000000000e-02 6.7663200000000003e+00 2.9303699999999999e+00 7.1781899999999998e+00 0 0 0
6163 444 4 0.0000000000000000e+00 7.6121999999999996e+00 4.3955599999999997e+00 2.3926400000000001e+00 0 0 0
6165 444 4 0.0000000000000000e+00 5.9206399999999997e+00 4.3955599999999997e+00 4.7824499999999999e+00 0 0 0
6167 444 4 0.0000000000000000e+00 6.7662699999999996e+00 5.8607399999999998e+00 0.0000000000000000e+00 0 0 0
6169 444 4 -7.6390000000000000e-02 6.7663200000000003e+00 5.8607399999999998e+00 7.1781499999999996e+00 0 0 0
6171 444 4 0.0000000000000000e+00 7.6121999999999996e+00 7.3259299999999996e+00 2.3926400000000001e+00 0 0 0
6173 444 4 0.0000000000000000e+00 5.9206399999999997e+00 7.3259299999999996e+00 4.7824200000000001e+00 0 0 0
6047 444 4 0.0000000000000000e+00 1.6907200000000000e+00 8.7911099999999998e+00 0.0000000000000000e+00 0 0 0
6048 444 4 0.0000000000000000e+00 4.2285000000000004e+00 1.0256300000000000e+01 0.0000000000000000e+00 0 0 0
6049 444 4 -7.6390000000000000e-02 1.6907700000000001e+00 8.7911099999999998e+00 7.1781899999999998e+00 0 0 0
6050 444 4 -7.6390000000000000e-02 4.2285500000000003e+00 1.0256300000000000e+01 7.1781600000000001e+00 0 0 0
6051 444 4 0.0000000000000000e+00 2.5366499999999998e+00 1.0256300000000000e+01 2.3926400000000001e+00 0 0 0
6052 444 4 0.0000000000000000e+00 5.0744199999999999e+00 8.7911099999999998e+00 2.3926400000000001e+00 0 0 0
6053 444 4 0.0000000000000000e+00 8.4509000000000001e-01 1.0256300000000000e+01 4.7824499999999999e+00 0 0 0
6054 444 4 0.0000000000000000e+00 3.3828700000000000e+00 8.7911099999999998e+00 4.7824400000000002e+00 0 0 0
6175 444 4 0.0000000000000000e+00 6.7662699999999996e+00 8.7911099999999998e+00 0.0000000000000000e+00 0 0 0
6177 444 4 -7.6390000000000000e-02 6.7663200000000003e+00 8.7911099999999998e+00 7.1781899999999998e+00 0 0 0
6179 444 4 0.0000000000000000e+00 7.6121999999999996e+00 1.0256300000000000e+01 2.3926400000000001e+00 0 0 0
6181 444 4 0.0000000000000000e+00 5.9206399999999997e+00 1.0256300000000000e+01 4.7824499999999999e+00 0 0 0
6152 444 4 0.0000000000000000e+00 9.3040500000000002e+00 1.4651900000000000e+00 0.0000000000000000e+00 0 0 0
6154 444 4 -7.6390000000000000e-02 9.3041000000000000e+00 1.4651900000000000e+00 7.1781499999999996e+00 0 0 0
6156 444 4 0.0000000000000000e+00 1.0149970000000000e+01 0.0000000000000000e+00 2.3926400000000001e+00 0 0 0
6158 444 4 0.0000000000000000e+00 8.4584100000000007e+00 0.0000000000000000e+00 4.7824499999999999e+00 0 0 0
6160 444 4 0.0000000000000000e+00 9.3040500000000002e+00 4.3955599999999997e+00 0.0000000000000000e+00 0 0 0
6162 444 4 -7.6390000000000000e-02 9.3041000000000000e+00 4.3955599999999997e+00 7.1781600000000001e+00 0 0 0
6164 444 4 0.0000000000000000e+00 1.0149970000000000e+01 2.9303699999999999e+00 2.3926400000000001e+00 0 0 0
6166 444 4 0.0000000000000000e+00 8.4584200000000003e+00 2.9303699999999999e+00 4.7824400000000002e+00 0 0 0
6168 444 4 0.0000000000000000e+00 9.3040500000000002e+00 7.3259299999999996e+00 0.0000000000000000e+00 0 0 0
6170 444 4 -7.6390000000000000e-02 9.3041000000000000e+00 7.3259299999999996e+00 7.1781499999999996e+00 0 0 0
6172 444 4 0.0000000000000000e+00 1.0149970000000000e+01 5.8607399999999998e+00 2.3926400000000001e+00 0 0 0
6174 444 4 0.0000000000000000e+00 8.4584100000000007e+00 5.8607399999999998e+00 4.7824499999999999e+00 0 0 0
6285 444 4 0.0000000000000000e+00 1.0996190000000000e+01 1.4651900000000000e+00 4.7824200000000001e+00 0 0 0
6293 444 4 0.0000000000000000e+00 1.0996190000000000e+01 4.3955599999999997e+00 4.7824499999999999e+00 0 0 0
6301 444 4 0.0000000000000000e+00 1.0996190000000000e+01 7.3259299999999996e+00 4.7824200000000001e+00 0 0 0
6279 444 4 0.0000000000000000e+00 1.1841820000000000e+01 0.0000000000000000e+00 0.0000000000000000e+00 0 0 0
6280 444 4 0.0000000000000000e+00 1.4379600000000000e+01 1.4651900000000000e+00 0.0000000000000000e+00 0 0 0
6281 444 4 -7.6390000000000000e-02 1.1841870000000000e+01 0.0000000000000000e+00 7.1781499999999996e+00 0 0 0
6282 444 4 -7.6390000000000000e-02 1.4379650000000000e+01 1.4651900000000000e+00 7.1781499999999996e+00 0 0 0
6283 444 4 0.0000000000000000e+00 1.2687749999999999e+01 1.4651900000000000e+00 2.3926400000000001e+00 0 0 0
6284 444 4 0.0000000000000000e+00 1.5225519999999999e+01 0.0000000000000000e+00 2.3926400000000001e+00 0 0 0
6286 444 4 0.0000000000000000e+00 1.3533960000000000e+01 0.0000000000000000e+00 4.7824499999999999e+00 0 0 0
6287 444 4 0.0000000000000000e+00 1.1841820000000000e+01 2.9303699999999999e+00 0.0000000000000000e+00 0 0 0
6288 444 4 0.0000000000000000e+00 1.4379600000000000e+01 4.3955599999999997e+00 0.0000000000000000e+00 0 0 0
6289 444 4 -7.6390000000000000e-02 1.1841870000000000e+01 2.9303699999999999e+00 7.1781899999999998e+00 0 0 0
6290 444 4 -7.6390000000000000e-02 1.4379650000000000e+01 4.3955599999999997e+00 7.1781600000000001e+00 0 0 0
6291 444 4 0.0000000000000000e+00 1.2687749999999999e+01 4.3955599999999997e+00 2.3926400000000001e+00 0 0 0
6292 444 4 0.0000000000000000e+00 1.5225519999999999e+01 2.9303699999999999e+00 2.3926400000000001e+00 0 0 0
6294 444 4 0.0000000000000000e+00 1.3533970000000000e+01 2.9303699999999999e+00 4.7824400000000002e+00 0 0 0
6295 444 4 0.0000000000000000e+00 1.1841820000000000e+01 5.8607399999999998e+00 0.0000000000000000e+00 0 0 0
6296 444 4 0.0000000000000000e+00 1.4379600000000000e+01 7.3259299999999996e+00 0.0000000000000000e+00 0 0 0
6297 444 4 -7.6390000000000000e-02 1.1841870000000000e+01 5.8607399999999998e+00 7.1781499999999996e+00 0 0 0
6298 444 4 -7.6390000000000000e-02 1.4379650000000000e+01 7.3259299999999996e+00 7.1781499999999996e+00 0 0 0
6299 444 4 0.0000000000000000e+00 1.2687749999999999e+01 7.3259299999999996e+00 2.3926400000000001e+00 0 0 0
6300 444 4 0.0000000000000000e+00 1.5225519999999999e+01 5.8607399999999998e+00 2.3926400000000001e+00 0 0 0
6302 444 4 0.0000000000000000e+00 1.3533960000000000e+01 5.8607399999999998e+00 4.7824499999999999e+00 0 0 0
6176 444 4 0.0000000000000000e+00 9.3040500000000002e+00 1.0256300000000000e+01 0.0000000000000000e+00 0 0 0
6178 444 4 -7.6390000000000000e-02 9.3041000000000000e+00 1.0256300000000000e+01 7.1781600000000001e+00 0 0 0
6180 444 4 0.0000000000000000e+00 1.0149970000000000e+01 8.7911099999999998e+00 2.3926400000000001e+00 0 0 0
6182 444 4 0.0000000000000000e+00 8.4584200000000003e+00 8.7911099999999998e+00 4.7824400000000002e+00 0 0 0
6309 444 4 0.0000000000000000e+00 1.0996190000000000e+01 1.0256300000000000e+01 4.7824499999999999e+00 0 0 0
6303 444 4 0.0000000000000000e+00 1.1841820000000000e+01 8.7911099999999998e+00 0.0000000000000000e+00 0 0 0
6304 444 4 0.0000000000000000e+00 1.4379600000000000e+01 1.0256300000000000e+01 0.0000000000000000e+00 0 0 0
6305 444 4 -7.6390000000000000e-02 1.1841870000000000e+01 8.7911099999999998e+00 7.1781899999999998e+00 0 0 0
6306 444 4 -7.6390000000000000e-02 1.4379650000000000e+01 1.0256300000000000e+01 7.1781600000000001e+00 0 0 0
6307 444 4 0.0000000000000000e+00 1.2687749999999999e+01 1.0256300000000000e+01 2.3926400000000001e+00 0 0 0
6308 444 4 0.0000000000000000e+00 1.5225519999999999e+01 8.7911099999999998e+00 2.3926400000000001e+00 0 0 0
6310 444 4 0.0000000000000000e+00 1.3533970000000000e+01 8.7911099999999998e+00 4.7824400000000002e+00 0 0 0
234 444 1 4.1499999999999998e-01 3.7784616190860141e+00 7.6806247509569632e+00 1.3254655187835381e+01 -2 -1 0
233 444 1 4.1499999999999998e-01 2.3729223986154411e+00 7.1540721902661506e+00 1.3452387669874531e+01 -2 -1 0
232 444 2 -8.2999999999999996e-01 2.8588925468385322e+00 7.9429503784275068e+00 1.3212101387984180e+01 -2 -1 0
1371 444 1 4.1499999999999998e-01 4.4113587395578451e+00 6.1253537044690933e+00 9.0914249994543148e+00 0 -2 0
4027 444 2 -8.2999999999999996e-01 3.2787082919800246e+00 3.8626427496182223e+00 1.0225664628019736e+01 3 5 0
1227 444 1 4.1499999999999998e-01 2.8843953095939816e+00 8.3485264328659579e+00 1.1316543220319176e+01 3 5 0
1225 444 2 -8.2999999999999996e-01 2.6577432004527148e+00 8.4286712801963404e+00 1.0390023993012488e+01 3 5 0
1226 444 1 4.1499999999999998e-01 3.4240897277911762e+00 8.0922475531145874e+00 9.9255195552829463e+00 3 5 0
4028 444 1 4.1499999999999998e-01 2.3675992400606454e+00 3.6630764084369134e+00 1.0440805861712349e+01 3 5 0
1963 444 2 -8.2999999999999996e-01 6.1170797967924990e+00 1.0114470579048161e+01 1.0326554051329806e+01 -1 1 0
1964 444 1 4.1499999999999998e-01 5.7399678223002013e+00 1.0022954647192297e+01 9.4515433062638845e+00 -1 1 0
2931 444 1 4.1499999999999998e-01 1.2869927908689338e+00 5.7546130759013145e+00 1.4613932498676483e+01 3 0 0
1965 444 1 4.1499999999999998e-01 6.2529285978504241e+00 1.1056090574868616e+01 1.0432051744349568e+01 -1 1 0
3661 444 2 -8.2999999999999996e-01 8.3400673806294068e-01 5.1633764553122221e+00 1.3101735021772015e+01 -1 -1 0
3662 444 1 4.1499999999999998e-01 8.4501867059139901e-01 5.6677665933677934e+00 1.2288284582752274e+01 -1 -1 0
5462 444 1 4.1499999999999998e-01 3.1811602983268616e+00 2.1177821600016187e+00 1.4258161091496543e+01 2 1 0
6005 444 3 1.0000000000000000e+00 6.7026387368091020e+00 8.7000378988687839e+00 1.2428363722827536e+01 2 1 0
4520 444 1 4.1499999999999998e-01 2.1380746419509600e+00 1.0910761799172485e+01 1.3941875817570550e+01 -1 1 0
4207 444 2 -8.2999999999999996e-01 4.8589912495058716e+00 1.7650920918624717e+00 1.3662828625071295e+01 2 4 0
4208 444 1 4.1499999999999998e-01 4.7711861218800955e+00 1.4521843774602274e+00 1.2762488262261492e+01 2 4 0
106 444 2 -8.2999999999999996e-01 4.7927002612907094e-01 1.0122347208612039e+01 9.8529285239291706e+00 -1 0 0
824 444 1 4.1499999999999998e-01 5.2536562001749045e+00 6.0813489959946869e+00 1.2976183594574591e+01 -1 -1 0
4209 444 1 4.1499999999999998e-01 5.1767004158147483e+00 1.0054877775076847e+00 1.4150982701605345e+01 2 4 0
4519 444 2 -8.2999999999999996e-01 1.9440644508281142e+00 1.0538030346116681e+01 1.3081839037839394e+01 -1 1 0
4029 444 1 4.1499999999999998e-01 3.3781022136916823e+00 3.5799158084368194e+00 9.3165890787627887e+00 3 5 0
4574 444 1 4.1499999999999998e-01 4.1521437763291065e+00 2.0282745200521828e+00 1.0697406554023477e+01 2 0 0
4573 444 2 -8.2999999999999996e-01 4.3986162169406713e+00 1.2492991264872444e+00 1.1196085776388777e+01 2 0 0
4575 444 1 4.1499999999999998e-01 5.2593669971390842e+00 1.0077729900679160e+00 1.0854024107048488e+01 2 0 0
892 444 2 -8.2999999999999996e-01 5.5414919137370893e+00 1.0111878069858792e+01 1.3744714531301842e+01 3 0 0
1370 444 1 4.1499999999999998e-01 3.7579720024429766e+00 5.7340844498848735e+00 1.0399816957713236e+01 0 -2 0
1369 444 2 -8.2999999999999996e-01 4.4147729632481036e+00 6.3228265229091836e+00 1.0028027756822459e+01 0 -2 0
5468 444 1 4.1499999999999998e-01 2.4779619018783880e-01 5.9948327588662940e+00 1.0075262387937878e+01 1 -3 0
823 444 2 -8.2999999999999996e-01 5.2422806370073296e+00 6.9346128531621085e+00 1.2542543983046476e+01 -1 -1 0
5574 444 1 4.1499999999999998e-01 5.0288899950575754e+00 4.5886455391227292e+00 1.4509432799927946e+01 -1 1 0
5572 444 2 -8.2999999999999996e-01 5.0101549452960539e+00 4.5640378230182135e+00 1.3552732144676940e+01 -1 1 0
5573 444 1 4.1499999999999998e-01 4.9790022085486765e+00 3.6319378065108237e+00 1.3337205431362625e+01 -1 1 0
108 444 1 4.1499999999999998e-01 1.0847937096198672e+00 9.4719901199722862e+00 1.0208749939125926e+01 -1 0 0
5463 444 1 4.1499999999999998e-01 2.1349802613328652e+00 2.8165605969339600e+00 1.3416073500606222e+01 2 1 0
5469 444 1 4.1499999999999998e-01 1.4885829628382483e+00 6.8613380841254239e+00 1.0114149343259735e+01 1 -3 0
5461 444 2 -8.2999999999999996e-01 2.3270765357541707e+00 2.5463304132937838e+00 1.4314019351533670e+01 2 1 0
2361 444 1 4.1499999999999998e-01 1.4658835772087078e+00 7.3345439513504063e-01 1.0711471621226172e+01 2 0 0
825 444 1 4.1499999999999998e-01 4.9095798133655597e+00 6.7527303164811041e+00 1.1663646427508324e+01 -1 -1 0
5078 444 1 4.1499999999999998e-01 5.9959952884437104e+00 5.0678003203472750e+00 1.0245067439001307e+01 2 -2 0
2360 444 1 4.1499999999999998e-01 2.8130995680632318e+00 1.3054611960467705e-01 1.1048229852689735e+01 2 0 0
893 444 1 4.1499999999999998e-01 5.1922131558229152e+00 1.0916463673736221e+01 1.3361465935836087e+01 3 0 0
5454 444 1 4.1499999999999998e-01 9.3582002344285875e-01 1.7423258777624406e+00 1.6100366411670112e+01 3 3 0
894 444 1 4.1499999999999998e-01 5.7127471633127209e+00 1.0336369804164267e+01 1.4659322330999585e+01 3 0 0
97 444 2 -8.2999999999999996e-01 8.1545989053050916e-01 2.1199268028700153e+00 1.0121473893777990e+01 6 -3 0
5453 444 1 4.1499999999999998e-01 6.7197898466818173e-01 7.4212177140015356e-01 1.4994981611521027e+01 3 3 0
3347 444 1 4.1499999999999998e-01 7.3109533268091615e+00 3.8911297939079033e+00 1.4392701160304849e+01 -1 -2 0
3907 444 2 -8.2999999999999996e-01 7.6706020765610239e-01 8.8451605220776823e+00 1.6223334498867448e+01 -3 1 0
5452 444 2 -8.2999999999999996e-01 6.2631063167136436e-01 8.4997239373046307e-01 1.5944989553116649e+01 3 3 0
3908 444 1 4.1499999999999998e-01 1.5946917671550187e+00 9.0467536605156749e+00 1.5786736084839891e+01 -3 1 0
3902 444 1 4.1499999999999998e-01 6.4540515035475856e+00 7.6981806161050947e+00 1.5576527208520105e+01 1 -2 0
3663 444 1 4.1499999999999998e-01 3.4142626237814139e-01 4.3714021814422095e+00 1.2886390070676439e+01 -1 -1 0
5467 444 2 -8.2999999999999996e-01 1.0897207172508876e+00 6.0917683417278896e+00 1.0520233117304141e+01 1 -3 0
4521 444 1 4.1499999999999998e-01 2.3369257721853303e+00 9.6654547127336112e+00 1.3104281688218299e+01 -1 1 0
351 444 1 4.1499999999999998e-01 6.8556596087284207e+00 1.5211300065316424e+00 9.6153115036577113e+00 -1 2 0
5077 444 2 -8.2999999999999996e-01 6.9457711350408742e+00 5.0025710743738090e+00 1.0145550576823316e+01 2 -2 0
5079 444 1 4.1499999999999998e-01 7.0706830734036767e+00 4.6337317370877544e+00 9.2711441084706010e+00 2 -2 0
349 444 2 -8.2999999999999996e-01 7.0092850501130259e+00 1.3936496494497215e+00 1.0551463402215505e+01 -1 2 0
350 444 1 4.1499999999999998e-01 7.5483359942119259e+00 2.1411293875487885e+00 1.0810174078178360e+01 -1 2 0
2447 444 1 4.1499999999999998e-01 1.0912474105463603e+00 1.9494316416033584e-02 1.2441905390702129e+01 5 -2 0
2929 444 2 -8.2999999999999996e-01 1.6063307348479550e+00 6.2071381441611093e+00 1.5394622111766171e+01 3 0 0
4286 444 1 4.1499999999999998e-01 3.5344191193045580e+00 5.6099758051036304e+00 1.5907928351922189e+01 -1 0 0
2930 444 1 4.1499999999999998e-01 1.0022379984715768e+00 6.9404763124323745e+00 1.5510893113024157e+01 3 0 0
4287 444 1 4.1499999999999998e-01 4.8811378805457588e+00 6.2196303828736905e+00 1.6234371696180929e+01 -1 0 0
4285 444 2 -8.2999999999999996e-01 4.4494071348911985e+00 5.3810674615882554e+00 1.6071114944275870e+01 -1 0 0
3633 444 1 4.1499999999999998e-01 1.7143862179793217e+00 3.3277426051433148e+00 1.5784074262399431e+01 -2 1 0
3901 444 2 -8.2999999999999996e-01 5.7314669513295700e+00 7.6011473740520472e+00 1.6196760297639198e+01 1 -2 0
107 444 1 4.1499999999999998e-01 4.4750310148094802e-01 9.9329345055323532e+00 8.9151942317452644e+00 -1 0 0
98 444 1 4.1499999999999998e-01 6.9931205889687376e-01 2.3078745303618264e+00 9.1901211752542658e+00 6 -3 0
4290 444 1 4.1499999999999998e-01 4.0229256622926117e+00 8.9848650374790981e+00 1.5701947820492576e+01 5 0 0
4288 444 2 -8.2999999999999996e-01 3.3091393730260776e+00 9.6182644790396807e+00 1.5776425751624078e+01 5 0 0
5639 444 1 4.1499999999999998e-01 1.5126563780928732e+01 8.3075786158555935e+00 1.5849495025445014e+01 -2 -1 0
2134 444 2 -8.2999999999999996e-01 1.5048020414773770e+01 6.0161820793595151e+00 1.0374026625407943e+01 2 1 0
155 444 1 4.1499999999999998e-01 8.7980574571484347e+00 8.0170440254215869e+00 1.4085903409111314e+01 0 -4 0
154 444 2 -8.2999999999999996e-01 7.8915242916330346e+00 7.7479693661748881e+00 1.4234326228467241e+01 0 -4 0
1050 444 1 4.1499999999999998e-01 1.2312018497486463e+01 8.5644304971910823e-01 1.2818571151035098e+01 -2 3 0
3346 444 2 -8.2999999999999996e-01 8.1689653255432972e+00 4.1102446039992886e+00 1.4029333402427001e+01 -1 -2 0
3348 444 1 4.1499999999999998e-01 8.6384017007154839e+00 4.5227691223000415e+00 1.4754375276073349e+01 -1 -2 0
2702 444 1 4.1499999999999998e-01 1.4087885582702574e+01 3.1801047105726750e+00 1.0083355060138270e+01 -2 -2 0
4586 444 1 4.1499999999999998e-01 1.1757420123170473e+01 1.7258902486801153e+00 9.7126294155362043e+00 -1 0 0
2199 444 1 4.1499999999999998e-01 9.4522153942413691e+00 2.4388697372089894e+00 1.3913007667541233e+01 3 5 0
2197 444 2 -8.2999999999999996e-01 9.7900745474072366e+00 1.6935138504021652e+00 1.4409523459770634e+01 3 5 0
773 444 1 4.1499999999999998e-01 8.0131871255360227e+00 4.1301443919797789e+00 1.0950299419445560e+01 -3 4 0
1221 444 1 4.1499999999999998e-01 1.0324981218152892e+01 8.4603401569684973e+00 9.0984079104038447e+00 1 -2 0
1764 444 1 4.1499999999999998e-01 1.1837513075940889e+01 4.0272825756398234e+00 1.0955012816357153e+01 0 -1 0
772 444 2 -8.2999999999999996e-01 8.4528149523046725e+00 3.4894633519918083e+00 1.1509304882030371e+01 -3 4 0
1219 444 2 -8.2999999999999996e-01 1.0579919024718018e+01 8.6619722257454850e+00 9.9987319772159005e+00 1 -2 0
4585 444 2 -8.2999999999999996e-01 1.1035970949620443e+01 1.3095019910712429e+00 1.0184184758839372e+01 -1 0 0
2198 444 1 4.1499999999999998e-01 1.0493910824004708e+01 1.3414043945248442e+00 1.3864668832704961e+01 3 5 0
774 444 1 4.1499999999999998e-01 8.2406568273761280e+00 3.7637717385065459e+00 1.2401479612226186e+01 -3 4 0
2629 444 2 -8.2999999999999996e-01 1.2886093028532164e+01 4.2077268570034008e+00 1.3668035733969834e+01 0 -2 0
5446 444 2 -8.2999999999999996e-01 8.8982224025461409e+00 9.9006369508618928e+00 1.2176705810770189e+01 4 -2 0
2173 444 2 -8.2999999999999996e-01 1.2339800727290770e+01 6.6347453145466746e+00 1.0650779108993534e+01 2 1 0
2175 444 1 4.1499999999999998e-01 1.1657412479812516e+01 7.2806356599028224e+00 1.0468008659424997e+01 2 1 0
1762 444 2 -8.2999999999999996e-01 1.1225543100596930e+01 4.4050954642791966e+00 1.1586663106799328e+01 0 -1 0
2174 444 1 4.1499999999999998e-01 1.1864296655088769e+01 5.8654212431603687e+00 1.0964258672346235e+01 2 1 0
1763 444 1 4.1499999999999998e-01 1.0446225005991524e+01 3.8526621495280193e+00 1.1525732063851956e+01 0 -1 0
5447 444 1 4.1499999999999998e-01 9.4572317795951371e+00 9.1323888090043450e+00 1.2293047022968732e+01 4 -2 0
736 444 2 -8.2999999999999996e-01 8.1755092887910941e+00 7.1194151878304135e+00 1.1477712378238408e+01 -1 0 0
738 444 1 4.1499999999999998e-01 9.0227107777027129e+00 7.2219821863417009e+00 1.1044166797262124e+01 -1 0 0
2212 444 2 -8.2999999999999996e-01 1.2740244269697676e+01 1.0520601591718874e+01 1.3207676556061797e+01 -1 -3 0
737 444 1 4.1499999999999998e-01 7.7573463176751751e+00 6.3912763730450060e+00 1.1018161900615873e+01 -1 0 0
2214 444 1 4.1499999999999998e-01 1.2432882964538113e+01 1.0751089212989262e+01 1.2330957417058174e+01 -1 -3 0
2213 444 1 4.1499999999999998e-01 1.2717623414575883e+01 9.5638459983099064e+00 1.3226095624655850e+01 -1 -3 0
372 444 1 4.1499999999999998e-01 1.3141516650095362e+01 3.8371168942705904e+00 1.5476081962504292e+01 0 0 0
922 444 2 -8.2999999999999996e-01 1.0478891563659802e+01 8.6470814118301504e+00 1.4212350377426430e+01 6 2 0
923 444 1 4.1499999999999998e-01 1.0767316749486652e+01 8.8359297599484616e+00 1.5105311263387719e+01 6 2 0
2631 444 1 4.1499999999999998e-01 1.2173931888348291e+01 4.0144469514039116e+00 1.3058362452954153e+01 0 -2 0
1220 444 1 4.1499999999999998e-01 1.0565945897282941e+01 9.6180122652735207e+00 1.0043726121419056e+01 1 -2 0
4587 444 1 4.1499999999999998e-01 1.0248774517037157e+01 1.6003553043833234e+00 9.7237953744584580e+00 -1 0 0
2701 444 2 -8.2999999999999996e-01 1.3171566331708400e+01 3.4537533891676500e+00 1.0042033463727163e+01 -2 -2 0
1049 444 1 4.1499999999999998e-01 1.1076034834505595e+01 7.6004141602197728e-01 1.1949694624273706e+01 -2 3 0
2703 444 1 4.1499999999999998e-01 1.3090545852654284e+01 3.8941621127203008e+00 9.1960383643030674e+00 -2 -2 0
156 444 1 4.1499999999999998e-01 7.8725060273471890e+00 6.8229560981940445e+00 1.3988926646499293e+01 0 -4 0
924 444 1 4.1499999999999998e-01 1.1264800765805919e+01 8.3280697961764858e+00 1.3768717343506607e+01 6 2 0
5448 444 1 4.1499999999999998e-01 9.2660465796247404e+00 1.0352263823565966e+01 1.1417119622125487e+01 4 -2 0
2630 444 1 4.1499999999999998e-01 1.3377034560450355e+01 4.9136967902384967e+00 1.3247542214056278e+01 0 -2 0
3195 444 1 4.1499999999999998e-01 1.0839785262742053e+01 5.5773620846601712e+00 1.5998918587444498e+01 -1 2 0
3193 444 2 -8.2999999999999996e-01 9.8946714232786164e+00 5.4734095545600274e+00 1.5888528185922276e+01 -1 2 0
1588 444 2 -8.2999999999999996e-01 1.2684801585280098e+01 7.9683770748226053e+00 1.3055695609116880e+01 3 -3 0
455 444 1 4.1499999999999998e-01 1.3826614957379853e+01 2.4868474206160518e+00 1.3240728416384602e+01 0 -2 0
1589 444 1 4.1499999999999998e-01 1.3509174561493039e+01 7.5154741129747942e+00 1.3233237916615275e+01 3 -3 0
454 444 2 -8.2999999999999996e-01 1.3698100992819956e+01 1.7621495993082719e+00 1.2628739801601139e+01 0 -2 0
1590 444 1 4.1499999999999998e-01 1.2252047996537732e+01 7.4285751408456342e+00 1.2394204442989640e+01 3 -3 0
2135 444 1 4.1499999999999998e-01 1.4127826513631568e+01 6.1878268925272462e+00 1.0574059722930963e+01 2 1 0
5516 444 1 4.1499999999999998e-01 1.4280879744038916e+01 1.1136925316467373e+01 1.3136676912563368e+01 2 0 0
1248 444 1 4.1499999999999998e-01 9.0488643024649225e+00 1.1557860983035440e+01 1.3679402029967063e+01 1 3 0
928 444 2 -8.2999999999999996e-01 9.6089546966624084e+00 1.1445998407885178e+01 1.0153873367993683e+01 1 0 0
930 444 1 4.1499999999999998e-01 9.0677849219887339e+00 1.1302729242008619e+01 9.3774448425458807e+00 1 0 0
2136 444 1 4.1499999999999998e-01 1.5097388142477099e+01 6.0556028687669583e+00 9.4189137000918688e+00 2 1 0
2750 444 1 4.1499999999999998e-01 9.6843705942735188e+00 7.3956176862141696e+00 1.6198682538803890e+01 1 3 0
5549 444 1 4.1499999999999998e-01 1.5001968326156584e+01 6.7389117832984029e+00 1.2247603816779041e+01 -2 1 0
3423 444 1 4.1499999999999998e-01 1.1205617004919366e+01 1.1255354877200727e+01 1.5862281986422673e+01 -3 -1 0
1246 444 2 -8.2999999999999996e-01 9.5067479986685068e+00 1.1535489178599667e+01 1.4519684403990226e+01 1 3 0
2779 444 2 -8.2999999999999996e-01 1.2333263735801353e+01 1.1706772945626637e+01 1.0467221944923006e+01 -3 1 0
1247 444 1 4.1499999999999998e-01 9.6891027903781541e+00 1.0607757735381943e+01 1.4668994723063701e+01 1 3 0
2781 444 1 4.1499999999999998e-01 1.2568750652500668e+01 1.1155039442922096e+01 9.7213209384088035e+00 -3 1 0
1048 444 2 -8.2999999999999996e-01 1.1405658222168901e+01 5.4867337335253441e-01 1.2823138448085251e+01 -2 3 0
456 444 1 4.1499999999999998e-01 1.4051110203594140e+01 2.0832766205268403e+00 1.1798983608771296e+01 0 -2 0
5489 444 1 4.1499999999999998e-01 9.0219407458897862e+00 5.1378710691980622e-01 1.5676812513594728e+01 -1 2 0
5548 444 2 -8.2999999999999996e-01 1.5204227693548551e+01 7.0325258529645680e+00 1.3135924741086050e+01 -2 1 0
5515 444 2 -8.2999999999999996e-01 1.5220808779707649e+01 1.1317923228706823e+01 1.3139024646603787e+01 2 0 0
5397 444 1 4.1499999999999998e-01 1.5063951005935239e+01 1.8366675958354506e-02 1.4894037700382109e+01 4 -4 0
15 444 1 4.1499999999999998e-01 4.6472252679373893e-01 3.5787139258388683e+00 2.1345386003064707e+01 -1 -2 0
3825 444 1 4.1499999999999998e-01 5.8436553540436487e+00 2.9546748381819959e-01 2.2588370351033372e+01 0 -2 0
3824 444 1 4.1499999999999998e-01 4.3401608463702361e+00 1.9669711773441986e-01 2.2735489745247605e+01 0 -2 0
60 444 1 4.1499999999999998e-01 5.5030666847802889e+00 1.0876892298715592e+01 1.7586187903975656e+01 5 -6 0
163 444 2 -8.2999999999999996e-01 3.0343994951955594e-01 3.9266648184292863e+00 1.9539743759753094e+01 3 -1 0
3009 444 1 4.1499999999999998e-01 7.5589759258316058e-01 7.1829741428617977e+00 1.9110911854975864e+01 -2 -2 0
165 444 1 4.1499999999999998e-01 6.3241219778223534e-01 3.5670161999394563e+00 1.8715934066989384e+01 3 -1 0
58 444 2 -8.2999999999999996e-01 6.0032800173231786e+00 1.0322838506422897e+01 1.6986985821774901e+01 5 -6 0
3007 444 2 -8.2999999999999996e-01 9.7079842204858338e-02 6.5275834975457681e+00 1.9340376761309983e+01 -2 -2 0
5941 444 2 -8.2999999999999996e-01 5.9258567726535656e+00 1.1513258885199576e+01 2.3247296431746218e+01 0 2 0
5943 444 1 4.1499999999999998e-01 5.7939726949892876e+00 1.1068271836026781e+01 2.4084449513103245e+01 0 2 0
5563 444 2 -8.2999999999999996e-01 1.6050111611236701e+00 1.1343341168080578e+01 1.9843190350290428e+01 -1 -1 0
4289 444 1 4.1499999999999998e-01 3.6548084898950273e+00 1.0303166911668441e+01 1.6348836772813918e+01 5 0 0
699 444 1 4.1499999999999998e-01 4.7475067038669696e+00 1.7815528648730738e-01 1.8716149292716530e+01 7 2 0
2949 444 1 4.1499999999999998e-01 3.3008449695107114e+00 3.7880595995953561e+00 1.8000986727276029e+01 1 -1 0
3903 444 1 4.1499999999999998e-01 5.9275439340772156e+00 8.2274647560696348e+00 1.6893547967091870e+01 1 -2 0
3611 444 1 4.1499999999999998e-01 1.8700776545818856e+00 9.2674619932519917e+00 1.9441332566217486e+01 -1 3 0
2947 444 2 -8.2999999999999996e-01 3.6652230744866361e+00 4.5219834049887337e+00 1.8495776273235386e+01 1 -1 0
2475 444 1 4.1499999999999998e-01 2.4267788656667606e+00 5.2058335432118792e+00 2.0251726479805644e+01 0 0 0
2473 444 2 -8.2999999999999996e-01 2.6489548213200638e+00 5.9463936933664572e+00 2.0816032014370073e+01 0 0 0
2474 444 1 4.1499999999999998e-01 3.2917072207473095e+00 6.4467998975876224e+00 2.0313343965906462e+01 0 0 0
2574 444 1 4.1499999999999998e-01 3.8901007005883388e+00 8.1791545082186587e+00 2.1707122457772702e+01 5 0 0
3797 444 1 4.1499999999999998e-01 1.3107432038429006e+00 6.0166177402351462e+00 2.1876478626716796e+01 0 -1 0
2168 444 1 4.1499999999999998e-01 5.0747514955817827e+00 7.8109902717733002e+00 1.9578256154149187e+01 4 4 0
2948 444 1 4.1499999999999998e-01 3.9079348908167573e+00 5.1641671383005194e+00 1.7828750415521796e+01 1 -1 0
3796 444 2 -8.2999999999999996e-01 8.9247150579884293e-01 6.1102987285486607e+00 2.2732343486462444e+01 0 -1 0
2169 444 1 4.1499999999999998e-01 6.3686809513599743e+00 7.3207690718848850e+00 1.8963988057777350e+01 4 4 0