LAMMPS data file via write_data, version 11 Aug 2017, timestep = 5000000

7156 atoms
4 atom types
4000 bonds
1 bond types
2000 angles
1 angle types

0.0000000000000000e+00 4.5679949999999998e+01 xlo xhi
0.0000000000000000e+00 4.6885919999999999e+01 ylo yhi
0.0000000000000000e+00 6.5000000000000000e+01 zlo zhi

Masses

1 1.0079
2 15.9994
3 22.9898
4 107.868

Bond Coeffs # harmonic

1 450 0.9572

Angle Coeffs # harmonic

1 500 104.52

Atoms # full

6005 444 4 0.0000000000000000e+00 1.6907200000000000e+00 0.0000000000000000e+00 0.0000000000000000e+00 0 0 0
6006 444 4 0.0000000000000000e+00 4.2285000000000004e+00 1.4651900000000000e+00 0.0000000000000000e+00 0 0 0
6007 444 4 -1.3890000000000000e-02 1.6907700000000001e+00 0.0000000000000000e+00 7.1781499999999996e+00 0 0 0
6008 444 4 -1.3890000000000000e-02 4.2285500000000003e+00 1.4651900000000000e+00 7.1781499999999996e+00 0 0 0
6009 444 4 0.0000000000000000e+00 2.5366499999999998e+00 1.4651900000000000e+00 2.3926400000000001e+00 0 0 0
6010 444 4 0.0000000000000000e+00 5.0744199999999999e+00 0.0000000000000000e+00 2.3926400000000001e+00 0 0 0
6011 444 4 0.0000000000000000e+00 8.4509000000000001e-01 1.4651900000000000e+00 4.7824200000000001e+00 0 0 0
6012 444 4 0.0000000000000000e+00 3.3828600000000000e+00 0.0000000000000000e+00 4.7824499999999999e+00 0 0 0
6013 444 4 0.0000000000000000e+00 1.6907200000000000e+00 2.9303699999999999e+00 0.0000000000000000e+00 0 0 0
6014 444 4 0.0000000000000000e+00 4.2285000000000004e+00 4.3955599999999997e+00 0.0000000000000000e+00 0 0 0
6015 444 4 -1.3890000000000000e-02 1.6907700000000001e+00 2.9303699999999999e+00 7.1781899999999998e+00 0 0 0
6016 444 4 -1.3890000000000000e-02 4.2285500000000003e+00 4.3955599999999997e+00 7.1781600000000001e+00 0 0 0
6017 444 4 0.0000000000000000e+00 2.5366499999999998e+00 4.3955599999999997e+00 2.3926400000000001e+00 0 0 0
6018 444 4 0.0000000000000000e+00 5.0744199999999999e+00 2.9303699999999999e+00 2.3926400000000001e+00 0 0 0
6019 444 4 0.0000000000000000e+00 8.4509000000000001e-01 4.3955599999999997e+00 4.7824499999999999e+00 0 0 0
6020 444 4 0.0000000000000000e+00 3.3828700000000000e+00 2.9303699999999999e+00 4.7824400000000002e+00 0 0 0
6021 444 4 0.0000000000000000e+00 1.6907200000000000e+00 5.8607399999999998e+00 0.0000000000000000e+00 0 0 0
6022 444 4 0.0000000000000000e+00 4.2285000000000004e+00 7.3259299999999996e+00 0.0000000000000000e+00 0 0 0
6023 444 4 -1.3890000000000000e-02 1.6907700000000001e+00 5.8607399999999998e+00 7.1781499999999996e+00 0 0 0
6024 444 4 -1.3890000000000000e-02 4.2285500000000003e+00 7.3259299999999996e+00 7.1781499999999996e+00 0 0 0
6025 444 4 0.0000000000000000e+00 2.5366499999999998e+00 7.3259299999999996e+00 2.3926400000000001e+00 0 0 0
6026 444 4 0.0000000000000000e+00 5.0744199999999999e+00 5.8607399999999998e+00 2.3926400000000001e+00 0 0 0
6027 444 4 0.0000000000000000e+00 8.4509000000000001e-01 7.3259299999999996e+00 4.7824200000000001e+00 0 0 0
6028 444 4 0.0000000000000000e+00 3.3828600000000000e+00 5.8607399999999998e+00 4.7824499999999999e+00 0 0 0
6133 444 4 0.0000000000000000e+00 6.7662699999999996e+00 0.0000000000000000e+00 0.0000000000000000e+00 0 0 0
6135 444 4 -1.3890000000000000e-02 6.7663200000000003e+00 0.0000000000000000e+00 7.1781499999999996e+00 0 0 0
6137 444 4 0.0000000000000000e+00 7.6121999999999996e+00 1.4651900000000000e+00 2.3926400000000001e+00 0 0 0
6139 444 4 0.0000000000000000e+00 5.9206399999999997e+00 1.4651900000000000e+00 4.7824200000000001e+00 0 0 0
6141 444 4 0.0000000000000000e+00 6.7662699999999996e+00 2.9303699999999999e+00 0.0000000000000000e+00 0 0 0
6143 444 4 -1.3890000000000000e-02 6.7663200000000003e+00 2.9303699999999999e+00 7.1781899999999998e+00 0 0 0
6145 444 4 0.0000000000000000e+00 7.6121999999999996e+00 4.3955599999999997e+00 2.3926400000000001e+00 0 0 0
6147 444 4 0.0000000000000000e+00 5.9206399999999997e+00 4.3955599999999997e+00 4.7824499999999999e+00 0 0 0
6149 444 4 0.0000000000000000e+00 6.7662699999999996e+00 5.8607399999999998e+00 0.0000000000000000e+00 0 0 0
6151 444 4 -1.3890000000000000e-02 6.7663200000000003e+00 5.8607399999999998e+00 7.1781499999999996e+00 0 0 0
6153 444 4 0.0000000000000000e+00 7.6121999999999996e+00 7.3259299999999996e+00 2.3926400000000001e+00 0 0 0
6155 444 4 0.0000000000000000e+00 5.9206399999999997e+00 7.3259299999999996e+00 4.7824200000000001e+00 0 0 0
6134 444 4 0.0000000000000000e+00 9.3040500000000002e+00 1.4651900000000000e+00 0.0000000000000000e+00 0 0 0
6136 444 4 -1.3890000000000000e-02 9.3041000000000000e+00 1.4651900000000000e+00 7.1781499999999996e+00 0 0 0
6138 444 4 0.0000000000000000e+00 1.0149970000000000e+01 0.0000000000000000e+00 2.3926400000000001e+00 0 0 0
6140 444 4 0.0000000000000000e+00 8.4584100000000007e+00 0.0000000000000000e+00 4.7824499999999999e+00 0 0 0
6142 444 4 0.0000000000000000e+00 9.3040500000000002e+00 4.3955599999999997e+00 0.0000000000000000e+00 0 0 0
6144 444 4 -1.3890000000000000e-02 9.3041000000000000e+00 4.3955599999999997e+00 7.1781600000000001e+00 0 0 0
6146 444 4 0.0000000000000000e+00 1.0149970000000000e+01 2.9303699999999999e+00 2.3926400000000001e+00 0 0 0
6148 444 4 0.0000000000000000e+00 8.4584200000000003e+00 2.9303699999999999e+00 4.7824400000000002e+00 0 0 0
6150 444 4 0.0000000000000000e+00 9.3040500000000002e+00 7.3259299999999996e+00 0.0000000000000000e+00 0 0 0
6152 444 4 -1.3890000000000000e-02 9.3041000000000000e+00 7.3259299999999996e+00 7.1781499999999996e+00 0 0 0
6154 444 4 0.0000000000000000e+00 1.0149970000000000e+01 5.8607399999999998e+00 2.3926400000000001e+00 0 0 0
6156 444 4 0.0000000000000000e+00 8.4584100000000007e+00 5.8607399999999998e+00 4.7824499999999999e+00 0 0 0
6267 444 4 0.0000000000000000e+00 1.0996190000000000e+01 1.4651900000000000e+00 4.7824200000000001e+00 0 0 0
6275 444 4 0.0000000000000000e+00 1.0996190000000000e+01 4.3955599999999997e+00 4.7824499999999999e+00 0 0 0
6283 444 4 0.0000000000000000e+00 1.0996190000000000e+01 7.3259299999999996e+00 4.7824200000000001e+00 0 0 0
5882 444 1 4.1499999999999998e-01 5.8477286588081103e+00 3.8242360669228268e+00 9.7593177760891265e+00 -3 4 0
5881 444 2 -8.2999999999999996e-01 6.2596146446178258e+00 4.5756479869354054e+00 1.0185888727200712e+01 -3 4 0
5883 444 1 4.1499999999999998e-01 5.5277186383044192e+00 5.1356557177997972e+00 1.0444640809786893e+01 -3 4 0
681 444 1 4.1499999999999998e-01 8.5237552440717295e+00 2.8475102552099694e+00 1.0938771740323096e+01 -1 2 0
5288 444 1 4.1499999999999998e-01 7.0144125974995637e+00 1.9445861901662600e+00 1.4087406934879368e+01 1 -1 0
5287 444 2 -8.2999999999999996e-01 6.8726313790139848e+00 1.0688155986135943e+00 1.3728024375824855e+01 1 -1 0
5289 444 1 4.1499999999999998e-01 5.9231426248767676e+00 9.5009932231694672e-01 1.3752711573539143e+01 1 -1 0
3334 444 2 -8.2999999999999996e-01 7.4255212933840111e+00 3.4212605517125003e+00 1.4573682544098824e+01 -2 -3 0
3336 444 1 4.1499999999999998e-01 7.0400188769145329e+00 4.1350522126472953e+00 1.4065626185326330e+01 -2 -3 0
3335 444 1 4.1499999999999998e-01 8.3570911474929801e+00 3.6361589610639644e+00 1.4620893678244249e+01 -2 -3 0
680 444 1 4.1499999999999998e-01 8.1799722656209113e+00 4.1206500712177201e+00 1.0195250691987193e+01 -1 2 0
679 444 2 -8.2999999999999996e-01 8.8287075461845870e+00 3.7423487296510554e+00 1.0788768526054504e+01 -1 2 0
3721 444 2 -8.2999999999999996e-01 4.8411691834564881e+00 2.0971799311801727e+00 1.0227355753312576e+01 1 -4 0
380 444 1 4.1499999999999998e-01 3.3692796120388766e+00 9.9850964332653835e-01 1.3645453912647104e+01 1 0 0
1861 444 2 -8.2999999999999996e-01 8.4021538440613319e-01 5.4162772862772108e+00 1.0408893319102106e+01 -3 0 0
1862 444 1 4.1499999999999998e-01 8.0596014703308516e-01 6.2140091996249103e+00 1.0936797065331662e+01 -3 0 0
800 444 1 4.1499999999999998e-01 2.0259706263983590e+00 2.2087459756764227e+00 1.2466018082972493e+01 7 0 0
3395 444 1 4.1499999999999998e-01 3.4344812120074359e+00 4.3765310268698352e+00 1.3298639506958875e+01 -6 -1 0
799 444 2 -8.2999999999999996e-01 2.1358421046409339e+00 2.3071588849903990e+00 1.3411785341488242e+01 7 0 0
3394 444 2 -8.2999999999999996e-01 4.0418290501831091e+00 4.6765055744609514e+00 1.2622343739742533e+01 -6 -1 0
801 444 1 4.1499999999999998e-01 1.2620162737824916e+00 2.5295363303154135e+00 1.3733047580840193e+01 7 0 0
3053 444 1 4.1499999999999998e-01 3.1794965089657086e+00 2.9762747292203264e+00 1.0156494443555381e+01 0 0 0
3723 444 1 4.1499999999999998e-01 5.3381700052948942e+00 1.3867813915656242e+00 9.8216998161903870e+00 1 -4 0
3396 444 1 4.1499999999999998e-01 3.6670089619036701e+00 4.3536784006620062e+00 1.1802877540784971e+01 -6 -1 0
5652 444 1 4.1499999999999998e-01 9.2667468608133206e+00 5.9491387841582100e+00 1.0579686892486817e+01 -4 6 0
379 444 2 -8.2999999999999996e-01 4.1278853478306941e+00 4.9661399513882581e-01 1.3347375420048198e+01 1 0 0
5650 444 2 -8.2999999999999996e-01 8.6182405592069493e+00 6.6446857571705973e+00 1.0470663450643331e+01 -4 6 0
5651 444 1 4.1499999999999998e-01 7.7741025266494930e+00 6.1994908378691864e+00 1.0544586363093865e+01 -4 6 0
4178 444 1 4.1499999999999998e-01 9.4019191687751125e-01 1.2112284899427619e+00 1.0613091904057798e+01 -1 -2 0
3052 444 2 -8.2999999999999996e-01 2.4274044807542263e+00 3.1038948434083253e+00 1.0734683866272592e+01 0 0 0
4883 444 1 4.1499999999999998e-01 3.1793167213994042e+00 3.2168073065165048e+00 1.4750985937460037e+01 -7 0 0
5259 444 1 4.1499999999999998e-01 8.2718919682055088e+00 6.3548658346903624e+00 1.3239503228005887e+01 -2 -2 0
1937 444 1 4.1499999999999998e-01 6.6323634096252748e+00 5.1170626756195823e+00 1.1987176091036281e+01 0 -7 0
3722 444 1 4.1499999999999998e-01 4.8197925142424189e+00 1.8741799823504526e+00 1.1157971838352230e+01 1 -4 0
3054 444 1 4.1499999999999998e-01 1.8860471147092717e+00 3.7524583008204240e+00 1.0284650547272571e+01 0 0 0
572 444 1 4.1499999999999998e-01 1.0742188757252832e+01 3.4596073702401005e+00 1.4698880708689654e+01 0 3 0
1938 444 1 4.1499999999999998e-01 5.7879158619814053e+00 5.1936187303267900e+00 1.3241346321858924e+01 0 -7 0
1936 444 2 -8.2999999999999996e-01 6.6860313974400594e+00 5.2949990680189094e+00 1.2926159748719387e+01 0 -7 0
573 444 1 4.1499999999999998e-01 1.0669754990850148e+01 4.6159580011154286e+00 1.5673304555710919e+01 0 3 0
571 444 2 -8.2999999999999996e-01 1.0217773719432468e+01 4.2280828170986329e+00 1.4923972788775789e+01 0 3 0
4882 444 2 -8.2999999999999996e-01 3.7920333045223740e+00 3.3300799157168215e+00 1.5477608398180715e+01 -7 0 0
567 444 1 4.1499999999999998e-01 1.0651272312644107e+01 3.4083238182338982e+00 1.1101018488311414e+01 -2 1 0
5480 444 1 4.1499999999999998e-01 4.7434140789453849e+00 4.4570869696125888e+00 1.6064451402283233e+01 1 1 0
2214 444 1 4.1499999999999998e-01 7.4172128338266319e+00 4.5305052184636879e-01 1.0481803781556362e+01 6 1 0
5258 444 1 4.1499999999999998e-01 9.2071817385522028e+00 6.6390566047816817e+00 1.4395515724885627e+01 -2 -2 0
2212 444 2 -8.2999999999999996e-01 8.0898558467131902e+00 9.7317449355988717e-01 1.0921411668053356e+01 6 1 0
4710 444 1 4.1499999999999998e-01 1.0127452908656370e+01 7.6720393585271995e-01 1.0204366317741396e+01 0 1 0
2213 444 1 4.1499999999999998e-01 7.8295899176756256e+00 9.7287097560041058e-01 1.1842548948315191e+01 6 1 0
1743 444 1 4.1499999999999998e-01 6.6555387402104982e+00 9.5988307317965371e-01 1.6051392348837648e+01 3 -1 0
5290 444 2 -8.2999999999999996e-01 4.4188180734829858e+00 6.6529110578019317e+00 1.0416676200944716e+01 -6 3 0
4793 444 1 4.1499999999999998e-01 1.0433282401320234e+01 6.2247454511766822e+00 1.2809173445188692e+01 3 -4 0
119 444 1 4.1499999999999998e-01 1.7648199848979029e-01 6.1316987447688502e+00 1.5296273700715169e+01 1 0 0
4708 444 2 -8.2999999999999996e-01 1.1029905553840656e+01 5.0414282653700271e-01 1.0384950087938737e+01 0 1 0
4897 444 2 -8.2999999999999996e-01 1.6909455987974356e+00 5.9100391039033200e+00 1.4747461580849880e+01 -5 -9 0
1742 444 1 4.1499999999999998e-01 6.9304585784536537e+00 2.4383812498468127e+00 1.5877156409299515e+01 3 -1 0
566 444 1 4.1499999999999998e-01 1.1362594652802228e+01 2.1350942979961411e+00 1.0695059793787234e+01 -2 1 0
996 444 1 4.1499999999999998e-01 2.0167621540156833e+00 7.8131155965871830e+00 1.1993242234994742e+01 2 2 0
4899 444 1 4.1499999999999998e-01 1.9612952728016515e+00 6.3014555468593398e+00 1.3916837654847464e+01 -5 -9 0
5257 444 2 -8.2999999999999996e-01 9.0192947396065080e+00 6.8965220009404966e+00 1.3492940341573048e+01 -2 -2 0
995 444 1 4.1499999999999998e-01 2.9630667885582613e+00 6.6387078147185026e+00 1.2124273795822592e+01 2 2 0
5292 444 1 4.1499999999999998e-01 5.2283476832057154e+00 7.1399162801148339e+00 1.0262663433722542e+01 -6 3 0
5291 444 1 4.1499999999999998e-01 3.7400350930425339e+00 7.1738361689593342e+00 9.9875808369849963e+00 -6 3 0
4177 444 2 -8.2999999999999996e-01 6.2939807178752871e-01 3.3154484876895468e-01 1.0399092506148595e+01 -1 -2 0
994 444 2 -8.2999999999999996e-01 2.1392428438426445e+00 6.9885248485595017e+00 1.2463646859663282e+01 2 2 0
4898 444 1 4.1499999999999998e-01 2.4936877333955967e+00 5.8722077180056154e+00 1.5267467069835034e+01 -5 -9 0
4792 444 2 -8.2999999999999996e-01 1.1246185918858533e+01 5.9375514897172810e+00 1.2393311978630605e+01 3 -4 0
5940 444 1 4.1499999999999998e-01 7.7584757511234317e+00 3.9697553575540563e+00 1.8150711736570017e+01 2 0 0
4806 444 1 4.1499999999999998e-01 1.0616977675477791e+01 1.7925195044038276e+00 1.6854278482981979e+01 -8 -2 0
5481 444 1 4.1499999999999998e-01 5.3904641288330648e+00 5.0800225826707646e+00 1.7283128050904164e+01 1 1 0
4805 444 1 4.1499999999999998e-01 9.2514525058226500e+00 1.2414490576097479e+00 1.7205787022047843e+01 -8 -2 0
5479 444 2 -8.2999999999999996e-01 5.2334825390945348e+00 5.2279402160694488e+00 1.6350546043566798e+01 1 1 0
4804 444 2 -8.2999999999999996e-01 9.8556452509334491e+00 1.9548602900969372e+00 1.7411280753120309e+01 -8 -2 0
1741 444 2 -8.2999999999999996e-01 6.7915180648144249e+00 1.7679729130961854e+00 1.6546096773134721e+01 3 -1 0
2937 444 1 4.1499999999999998e-01 5.4604732055188894e+00 9.7949645928588125e-01 2.3281818851105651e+01 -7 3 0
2022 444 1 4.1499999999999998e-01 3.8248963799689317e-01 1.3222887038771800e+00 2.4183070764180332e+01 -7 -1 0
1851 444 1 4.1499999999999998e-01 7.4157113681586990e+00 3.7658789602909742e-01 2.1844911847923555e+01 -1 4 0
2935 444 2 -8.2999999999999996e-01 6.3923043864279370e+00 8.3491698763384814e-01 2.3117442045289653e+01 -7 3 0
5938 444 2 -8.2999999999999996e-01 8.6145980024930946e+00 4.3369483129970217e+00 1.7930583651836603e+01 2 0 0
2936 444 1 4.1499999999999998e-01 6.7972121952431763e+00 8.7046127750868874e-01 2.3984055256321476e+01 -7 3 0
3261 444 1 4.1499999999999998e-01 3.2076318060640006e+00 6.6637488114744041e+00 2.2926744396876625e+01 0 -2 0
1850 444 1 4.1499999999999998e-01 7.9971379482118543e+00 7.3911183182062723e-01 2.0494943393707707e+01 -1 4 0
1831 444 2 -8.2999999999999996e-01 3.1437536067640339e+00 1.1825546341139401e+00 1.7120408377295032e+01 1 -2 0
1833 444 1 4.1499999999999998e-01 3.8058052907741309e+00 1.4289885831603244e+00 1.6474505824336088e+01 1 -2 0
4674 444 1 4.1499999999999998e-01 3.3575276521044257e+00 1.3938097993520631e+00 1.8996729907822541e+01 -3 2 0
4672 444 2 -8.2999999999999996e-01 3.7371382461859590e+00 1.7657155202099106e+00 1.9792854909587522e+01 -3 2 0
4139 444 1 4.1499999999999998e-01 6.1757493131791517e+00 2.9862261495904630e+00 2.0728190390206233e+01 -8 -4 0
3594 444 1 4.1499999999999998e-01 5.5273807840615126e+00 1.2941572072298848e+00 1.9577167528329902e+01 3 -4 0
5739 444 1 4.1499999999999998e-01 1.4575893405137628e+00 3.3534175712523808e+00 1.7372898011270223e+01 -8 1 0
5158 444 2 -8.2999999999999996e-01 3.3384147639406230e+00 4.5923867285526718e+00 1.9654088557440669e+01 -2 1 0
1310 444 1 4.1499999999999998e-01 4.0510296897022471e+00 2.5300784712535407e+00 2.2271591319221177e+01 5 6 0
1309 444 2 -8.2999999999999996e-01 4.0893498928652807e+00 2.1396618453863301e+00 2.3144711346108956e+01 5 6 0
1311 444 1 4.1499999999999998e-01 3.3926962567052579e+00 1.4832276073531341e+00 2.3144858579448410e+01 5 6 0
5737 444 2 -8.2999999999999996e-01 1.6854052938904895e+00 4.2676836905609514e+00 1.7541567483967789e+01 -8 1 0
5738 444 1 4.1499999999999998e-01 8.5802928409977108e-01 4.7411218948851186e+00 1.7454749886996442e+01 -8 1 0
2604 444 1 4.1499999999999998e-01 4.5026415665996442e+00 4.6892296727227425e+00 2.2309665386526401e+01 2 -1 0
2602 444 2 -8.2999999999999996e-01 3.5896008666531891e+00 4.9510836935706317e+00 2.2191254884044852e+01 2 -1 0
2603 444 1 4.1499999999999998e-01 3.4138281831934845e+00 4.7958080955752767e+00 2.1263232497137139e+01 2 -1 0
3592 444 2 -8.2999999999999996e-01 6.3866870939044382e+00 1.6779188873752098e+00 1.9402375780783835e+01 3 -4 0
3593 444 1 4.1499999999999998e-01 6.2696043220515181e+00 2.1679911048188205e+00 1.8588525038563706e+01 3 -4 0
5160 444 1 4.1499999999999998e-01 4.0888490413326917e+00 5.0977442841584608e+00 1.9341527383794240e+01 -2 1 0
1832 444 1 4.1499999999999998e-01 3.0474493548619561e+00 2.3593209433559920e-01 1.7016177284429794e+01 1 -2 0
4138 444 2 -8.2999999999999996e-01 5.9662773529347559e+00 3.6126860513843435e+00 2.1420940169675777e+01 -8 -4 0
3614 444 1 4.1499999999999998e-01 1.9735002057844138e+00 4.8340197771665645e+00 2.3123164100152692e+01 3 0 0
3613 444 2 -8.2999999999999996e-01 1.4712939562392515e+00 4.8016380974179498e+00 2.3937395141928096e+01 3 0 0
5159 444 1 4.1499999999999998e-01 2.7024630042839517e+00 4.6407275581011733e+00 1.8940322483198237e+01 -2 1 0
4884 444 1 4.1499999999999998e-01 3.2689897288604821e+00 3.1607954105208038e+00 1.6261190205936252e+01 -7 0 0
223 444 2 -8.2999999999999996e-01 3.7520067718873489e+00 7.1710637489206306e+00 1.7296994220530703e+01 2 4 0
224 444 1 4.1499999999999998e-01 4.3437246292106551e+00 6.4846783819046534e+00 1.6988810769765912e+01 2 4 0
4673 444 1 4.1499999999999998e-01 3.5661492420638727e+00 2.7050098798278288e+00 1.9724141562578357e+01 -3 2 0
418 444 2 -8.2999999999999996e-01 1.0536147936151718e+01 7.7559386125095431e+00 1.7116607353259738e+01 5 2 0
727 444 2 -8.2999999999999996e-01 6.2611359917720684e+00 5.1427466303402971e+00 1.8769277628802051e+01 -3 -1 0
645 444 1 4.1499999999999998e-01 2.1560340678529890e+00 3.1988439806781382e-01 2.0473592115166586e+01 -7 4 0
729 444 1 4.1499999999999998e-01 6.7801888299849171e+00 5.7359873763597200e+00 1.8226247757827945e+01 -3 -1 0
2780 444 1 4.1499999999999998e-01 6.7422609059286067e+00 6.3618233592698790e+00 1.6298975144551747e+01 11 0 0
2781 444 1 4.1499999999999998e-01 7.9938026245655429e+00 5.8160487802766214e+00 1.6952939379636351e+01 11 0 0
728 444 1 4.1499999999999998e-01 6.4114646797926413e+00 5.4441469358130945e+00 1.9665263705886769e+01 -3 -1 0
5276 444 1 4.1499999999999998e-01 2.9737297022099426e-02 4.3436273516241691e-01 1.8398682589646395e+01 2 -1 0
2779 444 2 -8.2999999999999996e-01 7.4391909913266234e+00 6.5951392470174408e+00 1.6912232595754006e+01 11 0 0
4140 444 1 4.1499999999999998e-01 6.2298039896152231e+00 3.1733630529065864e+00 2.2229507575456566e+01 -8 -4 0
1577 444 1 4.1499999999999998e-01 6.2309802992777072e+00 5.3932382854651770e+00 2.1600204764019004e+01 6 1 0
5939 444 1 4.1499999999999998e-01 9.1590516446089953e+00 3.5748140690359183e+00 1.7733214444421762e+01 2 0 0
1849 444 2 -8.2999999999999996e-01 8.1450183476298577e+00 1.7932514895827220e-01 2.1257178360710128e+01 -1 4 0
3844 444 2 -8.2999999999999996e-01 6.6824158268113418e+00 5.4429053207369842e+00 2.3965104924102310e+01 -1 -4 0
1576 444 2 -8.2999999999999996e-01 6.3490453566129439e+00 6.2710570419467242e+00 2.1237262868747820e+01 6 1 0
3846 444 1 4.1499999999999998e-01 6.3680976201698485e+00 6.3251400026474158e+00 2.4162837731412814e+01 -1 -4 0
3259 444 2 -8.2999999999999996e-01 3.3149776141393699e+00 7.2871230784771033e+00 2.3645154627404740e+01 0 -2 0
1578 444 1 4.1499999999999998e-01 6.7152604816553252e+00 6.7819559710337085e+00 2.1959136003425339e+01 6 1 0
3260 444 1 4.1499999999999998e-01 4.2592751076798807e+00 7.4356325900495657e+00 2.3694948355475702e+01 0 -2 0
3851 444 1 4.1499999999999998e-01 5.4927609161158335e+00 7.3669813362818699e+00 2.0190179580947884e+01 -1 4 0
420 444 1 4.1499999999999998e-01 9.8319014959451874e+00 7.2330352729376619e+00 1.7499806211449243e+01 5 2 0
225 444 1 4.1499999999999998e-01 4.1609469926186362e+00 7.4985984878185299e+00 1.8098069065886129e+01 2 4 0
5855 444 1 4.1499999999999998e-01 1.0134965428831933e+01 7.6855239453626885e+00 2.2589271216177426e+01 1 -3 0
3850 444 2 -8.2999999999999996e-01 4.9122851129220164e+00 7.7146577151350506e+00 1.9513126455759828e+01 -1 4 0
643 444 2 -8.2999999999999996e-01 1.4094617089766295e+00 1.7103356969587957e-01 2.1053855283912402e+01 -7 4 0
1681 444 2 -8.2999999999999996e-01 4.1759201171384225e-01 6.3546685336430047e+00 3.0982051576431186e+01 1 1 0
5643 444 1 4.1499999999999998e-01 9.0350290297271112e+00 5.9157809139674034e-01 2.5325852018386946e+01 0 3 0
267 444 1 4.1499999999999998e-01 8.5484075243021937e+00 1.1896766586344380e-01 2.8150805333956818e+01 -6 0 0
4912 444 2 -8.2999999999999996e-01 7.2095012978963373e+00 1.4115580802374679e+00 2.7794025284231591e+01 -5 2 0
1682 444 1 4.1499999999999998e-01 4.5761244046372757e-01 6.0516266797782468e+00 3.0074970497202191e+01 1 1 0
5084 444 1 4.1499999999999998e-01 2.8989100145703213e+00 7.1896351208306941e-01 3.1675528793174163e+01 -1 -1 0
3025 444 2 -8.2999999999999996e-01 1.0760601111818366e+01 2.3382613849879959e+00 2.8755877745335052e+01 1 -3 0
1784 444 1 4.1499999999999998e-01 7.2763081912157335e-01 4.7881526067082349e+00 2.8302635442407873e+01 -3 6 0
2389 444 2 -8.2999999999999996e-01 1.0870666612995594e+01 4.4982065954068651e-01 2.5909262157249760e+01 4 2 0
2391 444 1 4.1499999999999998e-01 1.1313012742281227e+01 7.0341430604002553e-01 2.5099167697077171e+01 4 2 0
3615 444 1 4.1499999999999998e-01 2.0896943013228371e+00 4.4685901358883600e+00 2.4587696569168731e+01 3 0 0
1783 444 2 -8.2999999999999996e-01 1.3519128630794958e-01 4.2867091309958845e+00 2.8862815509760402e+01 -3 6 0
5642 444 1 4.1499999999999998e-01 7.8350290658469213e+00 7.6148175163027565e-01 2.6233061517462215e+01 0 3 0
5083 444 2 -8.2999999999999996e-01 3.1183498310058759e+00 8.1011629932330437e-02 3.0996488236232246e+01 -1 -1 0
2020 444 2 -8.2999999999999996e-01 3.4636158197045214e-01 4.7862188950354467e-01 2.4633795710178646e+01 -7 -1 0
2021 444 1 4.1499999999999998e-01 1.2627586335385419e+00 2.2174843370290157e-01 2.4736092423736547e+01 -7 -1 0
1952 444 1 4.1499999999999998e-01 4.0708973009007634e+00 3.4088870309091419e+00 2.4444587543960314e+01 2 0 0
4716 444 1 4.1499999999999998e-01 4.1941174559553724e+00 2.3255572865274825e+00 2.7094952650567684e+01 -1 -2 0
4442 444 1 4.1499999999999998e-01 7.4532124036796281e+00 7.1034833144233680e+00 3.0837078696875846e+01 -2 5 0
2731 444 2 -8.2999999999999996e-01 1.5459195967871242e+00 7.5223958297289339e+00 2.5546953381497595e+01 3 6 0
4914 444 1 4.1499999999999998e-01 7.4729524331223391e+00 1.8225849192575765e+00 2.8617361536446783e+01 -5 2 0
4443 444 1 4.1499999999999998e-01 7.6223399878593323e+00 6.4461203792198685e+00 3.2190284429975264e+01 -2 5 0
3026 444 1 4.1499999999999998e-01 1.0311755957822076e+01 3.0564685260265145e+00 2.9201914786076767e+01 1 -3 0
853 444 2 -8.2999999999999996e-01 1.1099498358278394e+01 3.5020137882854563e+00 2.4823080589797399e+01 5 -1 0
3948 444 1 4.1499999999999998e-01 9.5835348336709867e+00 6.8845168528329088e+00 2.8511367565224358e+01 0 6 0
1683 444 1 4.1499999999999998e-01 1.2611320103671628e+00 6.7823239585067965e+00 3.1129642644517936e+01 1 1 0
3104 444 1 4.1499999999999998e-01 3.3311576552142967e+00 4.2741120318648722e+00 2.8870653228008148e+01 -2 5 0
4646 444 1 4.1499999999999998e-01 5.1525098744405300e+00 2.7401671688941681e-01 2.8640894677868516e+01 4 4 0
5641 444 2 -8.2999999999999996e-01 8.1121038857489953e+00 3.5310881010993700e-01 2.5412882296115793e+01 0 3 0
4602 444 1 4.1499999999999998e-01 7.0291094741914932e+00 2.6266360718001716e+00 3.0597926229599008e+01 0 0 0
4812 444 1 4.1499999999999998e-01 2.6412995190867128e+00 5.0122962312057435e+00 2.6571833316407300e+01 5 3 0
4715 444 1 4.1499999999999998e-01 4.0765025994990678e+00 2.3239244256657523e+00 2.8604276792931039e+01 -1 -2 0
3105 444 1 4.1499999999999998e-01 2.0064573302306976e+00 3.6233341943028132e+00 2.9207628996805639e+01 -2 5 0
4600 444 2 -8.2999999999999996e-01 7.8198798735160864e+00 2.4161390462732633e+00 3.0101332659709307e+01 0 0 0
3946 444 2 -8.2999999999999996e-01 9.9988605865826266e+00 6.0253606249726177e+00 2.8436621358774538e+01 0 6 0
3103 444 2 -8.2999999999999996e-01 2.9518889512782360e+00 3.5108151020714131e+00 2.9306274123764371e+01 -2 5 0
4811 444 1 4.1499999999999998e-01 1.7185079010450963e+00 6.2080848748041975e+00 2.6674011975733485e+01 5 3 0
2881 444 2 -8.2999999999999996e-01 5.9053175574501147e+00 2.8242311971925984e+00 3.1956676730906022e+01 -3 4 0
4714 444 2 -8.2999999999999996e-01 4.5227148858489787e+00 1.8862290473637722e+00 2.7879329046732344e+01 -1 -2 0
2882 444 1 4.1499999999999998e-01 5.3920998912302149e+00 2.0190553035836758e+00 3.1889361289131823e+01 -3 4 0
3845 444 1 4.1499999999999998e-01 6.6678826659301453e+00 4.9885509435059170e+00 2.4807472509622009e+01 -1 -4 0
1044 444 1 4.1499999999999998e-01 5.6081565900881776e+00 6.2475779972955197e+00 2.8653785646414455e+01 0 1 0
4509 444 1 4.1499999999999998e-01 9.5040438454746692e+00 3.2712786549945645e+00 2.6800254657133220e+01 1 -3 0
1043 444 1 4.1499999999999998e-01 4.9416472252082073e+00 5.4743174972838142e+00 2.9771698401416280e+01 0 1 0
2567 444 1 4.1499999999999998e-01 1.1171470972520385e+01 6.0229822694353201e+00 2.4710563137855608e+01 -3 -2 0
4810 444 2 -8.2999999999999996e-01 1.9984566300014679e+00 5.4252652901059291e+00 2.7148410728699538e+01 5 3 0
4507 444 2 -8.2999999999999996e-01 8.9009576065464859e+00 3.9286504346427291e+00 2.6453294244051367e+01 1 -3 0
2950 444 2 -8.2999999999999996e-01 6.9204634944580512e+00 7.3567264831023067e+00 2.8997314504099030e+01 4 5 0
1715 444 1 4.1499999999999998e-01 5.7319085614232312e+00 4.6761820585602969e+00 2.7377814294448537e+01 4 -4 0
1714 444 2 -8.2999999999999996e-01 6.1539721913539971e+00 4.3293271182032971e+00 2.6591819777906370e+01 4 -4 0
1716 444 1 4.1499999999999998e-01 6.8911990502292095e+00 3.8158261904738531e+00 2.6922040584235610e+01 4 -4 0
1951 444 2 -8.2999999999999996e-01 3.9200834055791929e+00 3.9622544029141040e+00 2.5210924012878969e+01 2 0 0
1042 444 2 -8.2999999999999996e-01 5.0698892562165963e+00 5.4743875221312628e+00 2.8823127929393213e+01 0 1 0
1953 444 1 4.1499999999999998e-01 4.7777923888740848e+00 4.0302468526375756e+00 2.5630381261394444e+01 2 0 0
5050 444 2 -8.2999999999999996e-01 2.9053149228275528e+00 7.2426233729638057e+00 3.1024456426712916e+01 -3 5 0
5051 444 1 4.1499999999999998e-01 3.6452314300884794e+00 6.6370058986993952e+00 3.1068992000550161e+01 -3 5 0
4508 444 1 4.1499999999999998e-01 9.1585653222402321e+00 4.0308599510442100e+00 2.5537093524092160e+01 1 -3 0
1504 444 2 -8.2999999999999996e-01 9.3477371698649705e+00 4.3315576706399321e+00 3.0338321847085737e+01 2 0 0
1506 444 1 4.1499999999999998e-01 9.7373885270229970e+00 4.6047148997686289e+00 3.1168857368479564e+01 2 0 0
3947 444 1 4.1499999999999998e-01 9.7163045163714408e+00 5.6956093516786872e+00 2.7583592520475012e+01 0 6 0
1945 444 2 -8.2999999999999996e-01 5.2390572154613340e+00 5.3270732289931617e+00 3.1635719890188266e+01 -3 0 0
4601 444 1 4.1499999999999998e-01 8.4097933391970230e+00 3.1516697761862207e+00 3.0266343576511193e+01 0 0 0
1946 444 1 4.1499999999999998e-01 5.0878551115266042e+00 4.3821455221736434e+00 3.1613777773110595e+01 -3 0 0
72 444 1 4.1499999999999998e-01 1.5319060995391316e+00 4.3249708964246301e+00 3.2044337800775182e+01 -2 2 0
1505 444 1 4.1499999999999998e-01 9.5298480194358124e+00 5.0548630857980879e+00 2.9738406482287989e+01 2 0 0
2732 444 1 4.1499999999999998e-01 2.1345470273175562e+00 7.2557806234189810e+00 2.4840790499840413e+01 3 6 0
3027 444 1 4.1499999999999998e-01 1.0192215591427990e+01 1.5798656089297582e+00 2.8890065374731389e+01 1 -3 0
2072 444 1 4.1499999999999998e-01 9.4749769502059944e-01 1.0876874823655566e-01 2.8703440932199353e+01 -1 0 0
4913 444 1 4.1499999999999998e-01 6.2793710251575927e+00 1.6206784345910643e+00 2.7708245096480475e+01 -5 2 0
4441 444 2 -8.2999999999999996e-01 7.7103432975854407e+00 7.2865904003712147e+00 3.1740731213272554e+01 -2 5 0
521 444 1 4.1499999999999998e-01 9.2938877451563666e+00 1.8082938436167830e+00 3.1958178776539103e+01 -5 -2 0
1947 444 1 4.1499999999999998e-01 6.1271759590114332e+00 5.4200606938401865e+00 3.1980437679015047e+01 -3 0 0
2951 444 1 4.1499999999999998e-01 7.7040809541370407e+00 7.5310477387220374e+00 2.8475981703200535e+01 4 5 0
266 444 1 4.1499999999999998e-01 9.8270778055744845e+00 3.2717563965980562e-01 2.7367512621874738e+01 -6 0 0
4647 444 1 4.1499999999999998e-01 4.5498085176373788e+00 4.8593242712214109e-02 3.0011234256749724e+01 4 4 0
2678 444 1 4.1499999999999998e-01 1.1167392556155646e+01 6.0055136799749649e+00 3.2638739936548141e+01 1 3 0
1817 444 1 4.1499999999999998e-01 4.4491784313355183e+00 6.2014234629787426e+00 3.3326255248553665e+01 0 3 0
1816 444 2 -8.2999999999999996e-01 3.8802333781771376e+00 6.7510074139594209e+00 3.3865227585387316e+01 0 3 0
1300 444 2 -8.2999999999999996e-01 1.7328290458323578e-01 4.9250992193442809e+00 3.7256876697143852e+01 3 7 0
2815 444 2 -8.2999999999999996e-01 7.5810538578754798e+00 4.9159794826138272e+00 3.3089964092125527e+01 2 -4 0
2677 444 2 -8.2999999999999996e-01 1.0511367832299973e+01 5.3791122666552518e+00 3.2944493034554689e+01 1 3 0
71 444 1 4.1499999999999998e-01 9.4841900579043414e-01 3.8976885381188007e+00 3.3374325778433587e+01 -2 2 0
5776 444 2 -8.2999999999999996e-01 6.5477359877671093e+00 1.7466665556544456e-01 3.5724558835889169e+01 2 -4 0