LAMMPS data file via write_data, version 11 Aug 2017, timestep = 500000

7162 atoms
4 atom types
4000 bonds
1 bond types
2000 angles
1 angle types

0.0000000000000000e+00 4.5679949999999998e+01 xlo xhi
0.0000000000000000e+00 4.6885919999999999e+01 ylo yhi
0.0000000000000000e+00 6.5000000000000000e+01 zlo zhi

Masses

1 1.0079
2 15.9994
3 22.9898
4 107.868

Bond Coeffs # harmonic

1 450 0.9572

Angle Coeffs # harmonic

1 55 104.52

Atoms # full

6011 444 4 0.0000000000000000e+00 1.6907200000000000e+00 0.0000000000000000e+00 0.0000000000000000e+00 0 0 0
6012 444 4 0.0000000000000000e+00 4.2285000000000004e+00 1.4651900000000000e+00 0.0000000000000000e+00 0 0 0
6013 444 4 -3.4720000000000001e-02 1.6907700000000001e+00 0.0000000000000000e+00 7.1781499999999996e+00 0 0 0
6014 444 4 -3.4720000000000001e-02 4.2285500000000003e+00 1.4651900000000000e+00 7.1781499999999996e+00 0 0 0
6015 444 4 0.0000000000000000e+00 2.5366499999999998e+00 1.4651900000000000e+00 2.3926400000000001e+00 0 0 0
6016 444 4 0.0000000000000000e+00 5.0744199999999999e+00 0.0000000000000000e+00 2.3926400000000001e+00 0 0 0
6017 444 4 0.0000000000000000e+00 8.4509000000000001e-01 1.4651900000000000e+00 4.7824200000000001e+00 0 0 0
6018 444 4 0.0000000000000000e+00 3.3828600000000000e+00 0.0000000000000000e+00 4.7824499999999999e+00 0 0 0
6019 444 4 0.0000000000000000e+00 1.6907200000000000e+00 2.9303699999999999e+00 0.0000000000000000e+00 0 0 0
6020 444 4 0.0000000000000000e+00 4.2285000000000004e+00 4.3955599999999997e+00 0.0000000000000000e+00 0 0 0
6021 444 4 -3.4720000000000001e-02 1.6907700000000001e+00 2.9303699999999999e+00 7.1781899999999998e+00 0 0 0
6022 444 4 -3.4720000000000001e-02 4.2285500000000003e+00 4.3955599999999997e+00 7.1781600000000001e+00 0 0 0
6023 444 4 0.0000000000000000e+00 2.5366499999999998e+00 4.3955599999999997e+00 2.3926400000000001e+00 0 0 0
6024 444 4 0.0000000000000000e+00 5.0744199999999999e+00 2.9303699999999999e+00 2.3926400000000001e+00 0 0 0
6025 444 4 0.0000000000000000e+00 8.4509000000000001e-01 4.3955599999999997e+00 4.7824499999999999e+00 0 0 0
6026 444 4 0.0000000000000000e+00 3.3828700000000000e+00 2.9303699999999999e+00 4.7824400000000002e+00 0 0 0
6027 444 4 0.0000000000000000e+00 1.6907200000000000e+00 5.8607399999999998e+00 0.0000000000000000e+00 0 0 0
6028 444 4 0.0000000000000000e+00 4.2285000000000004e+00 7.3259299999999996e+00 0.0000000000000000e+00 0 0 0
6029 444 4 -3.4720000000000001e-02 1.6907700000000001e+00 5.8607399999999998e+00 7.1781499999999996e+00 0 0 0
6030 444 4 -3.4720000000000001e-02 4.2285500000000003e+00 7.3259299999999996e+00 7.1781499999999996e+00 0 0 0
6031 444 4 0.0000000000000000e+00 2.5366499999999998e+00 7.3259299999999996e+00 2.3926400000000001e+00 0 0 0
6032 444 4 0.0000000000000000e+00 5.0744199999999999e+00 5.8607399999999998e+00 2.3926400000000001e+00 0 0 0
6033 444 4 0.0000000000000000e+00 8.4509000000000001e-01 7.3259299999999996e+00 4.7824200000000001e+00 0 0 0
6034 444 4 0.0000000000000000e+00 3.3828600000000000e+00 5.8607399999999998e+00 4.7824499999999999e+00 0 0 0
6139 444 4 0.0000000000000000e+00 6.7662699999999996e+00 0.0000000000000000e+00 0.0000000000000000e+00 0 0 0
6141 444 4 -3.4720000000000001e-02 6.7663200000000003e+00 0.0000000000000000e+00 7.1781499999999996e+00 0 0 0
6143 444 4 0.0000000000000000e+00 7.6121999999999996e+00 1.4651900000000000e+00 2.3926400000000001e+00 0 0 0
6145 444 4 0.0000000000000000e+00 5.9206399999999997e+00 1.4651900000000000e+00 4.7824200000000001e+00 0 0 0
6147 444 4 0.0000000000000000e+00 6.7662699999999996e+00 2.9303699999999999e+00 0.0000000000000000e+00 0 0 0
6149 444 4 -3.4720000000000001e-02 6.7663200000000003e+00 2.9303699999999999e+00 7.1781899999999998e+00 0 0 0
6151 444 4 0.0000000000000000e+00 7.6121999999999996e+00 4.3955599999999997e+00 2.3926400000000001e+00 0 0 0
6153 444 4 0.0000000000000000e+00 5.9206399999999997e+00 4.3955599999999997e+00 4.7824499999999999e+00 0 0 0
6155 444 4 0.0000000000000000e+00 6.7662699999999996e+00 5.8607399999999998e+00 0.0000000000000000e+00 0 0 0
6157 444 4 -3.4720000000000001e-02 6.7663200000000003e+00 5.8607399999999998e+00 7.1781499999999996e+00 0 0 0
6159 444 4 0.0000000000000000e+00 7.6121999999999996e+00 7.3259299999999996e+00 2.3926400000000001e+00 0 0 0
6161 444 4 0.0000000000000000e+00 5.9206399999999997e+00 7.3259299999999996e+00 4.7824200000000001e+00 0 0 0
6140 444 4 0.0000000000000000e+00 9.3040500000000002e+00 1.4651900000000000e+00 0.0000000000000000e+00 0 0 0
6142 444 4 -3.4720000000000001e-02 9.3041000000000000e+00 1.4651900000000000e+00 7.1781499999999996e+00 0 0 0
6144 444 4 0.0000000000000000e+00 1.0149970000000000e+01 0.0000000000000000e+00 2.3926400000000001e+00 0 0 0
6146 444 4 0.0000000000000000e+00 8.4584100000000007e+00 0.0000000000000000e+00 4.7824499999999999e+00 0 0 0
6148 444 4 0.0000000000000000e+00 9.3040500000000002e+00 4.3955599999999997e+00 0.0000000000000000e+00 0 0 0
6150 444 4 -3.4720000000000001e-02 9.3041000000000000e+00 4.3955599999999997e+00 7.1781600000000001e+00 0 0 0
6152 444 4 0.0000000000000000e+00 1.0149970000000000e+01 2.9303699999999999e+00 2.3926400000000001e+00 0 0 0
6154 444 4 0.0000000000000000e+00 8.4584200000000003e+00 2.9303699999999999e+00 4.7824400000000002e+00 0 0 0
6156 444 4 0.0000000000000000e+00 9.3040500000000002e+00 7.3259299999999996e+00 0.0000000000000000e+00 0 0 0
6158 444 4 -3.4720000000000001e-02 9.3041000000000000e+00 7.3259299999999996e+00 7.1781499999999996e+00 0 0 0
6160 444 4 0.0000000000000000e+00 1.0149970000000000e+01 5.8607399999999998e+00 2.3926400000000001e+00 0 0 0
6162 444 4 0.0000000000000000e+00 8.4584100000000007e+00 5.8607399999999998e+00 4.7824499999999999e+00 0 0 0
6273 444 4 0.0000000000000000e+00 1.0996190000000000e+01 1.4651900000000000e+00 4.7824200000000001e+00 0 0 0
6281 444 4 0.0000000000000000e+00 1.0996190000000000e+01 4.3955599999999997e+00 4.7824499999999999e+00 0 0 0
6289 444 4 0.0000000000000000e+00 1.0996190000000000e+01 7.3259299999999996e+00 4.7824200000000001e+00 0 0 0
6035 444 4 0.0000000000000000e+00 1.6907200000000000e+00 8.7911099999999998e+00 0.0000000000000000e+00 0 0 0
6036 444 4 0.0000000000000000e+00 4.2285000000000004e+00 1.0256300000000000e+01 0.0000000000000000e+00 0 0 0
6037 444 4 -3.4720000000000001e-02 1.6907700000000001e+00 8.7911099999999998e+00 7.1781899999999998e+00 0 0 0
6038 444 4 -3.4720000000000001e-02 4.2285500000000003e+00 1.0256300000000000e+01 7.1781600000000001e+00 0 0 0
6039 444 4 0.0000000000000000e+00 2.5366499999999998e+00 1.0256300000000000e+01 2.3926400000000001e+00 0 0 0
6040 444 4 0.0000000000000000e+00 5.0744199999999999e+00 8.7911099999999998e+00 2.3926400000000001e+00 0 0 0
6041 444 4 0.0000000000000000e+00 8.4509000000000001e-01 1.0256300000000000e+01 4.7824499999999999e+00 0 0 0
6042 444 4 0.0000000000000000e+00 3.3828700000000000e+00 8.7911099999999998e+00 4.7824400000000002e+00 0 0 0
6163 444 4 0.0000000000000000e+00 6.7662699999999996e+00 8.7911099999999998e+00 0.0000000000000000e+00 0 0 0
6165 444 4 -3.4720000000000001e-02 6.7663200000000003e+00 8.7911099999999998e+00 7.1781899999999998e+00 0 0 0
6167 444 4 0.0000000000000000e+00 7.6121999999999996e+00 1.0256300000000000e+01 2.3926400000000001e+00 0 0 0
6169 444 4 0.0000000000000000e+00 5.9206399999999997e+00 1.0256300000000000e+01 4.7824499999999999e+00 0 0 0
6164 444 4 0.0000000000000000e+00 9.3040500000000002e+00 1.0256300000000000e+01 0.0000000000000000e+00 0 0 0
6166 444 4 -3.4720000000000001e-02 9.3041000000000000e+00 1.0256300000000000e+01 7.1781600000000001e+00 0 0 0
6168 444 4 0.0000000000000000e+00 1.0149970000000000e+01 8.7911099999999998e+00 2.3926400000000001e+00 0 0 0
6170 444 4 0.0000000000000000e+00 8.4584200000000003e+00 8.7911099999999998e+00 4.7824400000000002e+00 0 0 0
6297 444 4 0.0000000000000000e+00 1.0996190000000000e+01 1.0256300000000000e+01 4.7824499999999999e+00 0 0 0
1238 444 1 4.1499999999999998e-01 1.0591197014508467e+00 6.5608565414515594e+00 1.0156120425835290e+01 0 3 0
3592 444 2 -8.2999999999999996e-01 8.1670186475726911e+00 4.5145871735607717e+00 1.0394274506530442e+01 -1 -1 0
5160 444 1 4.1499999999999998e-01 1.3083654250050945e+00 5.7891850512511454e+00 1.4532489303893012e+01 1 -1 0
5158 444 2 -8.2999999999999996e-01 1.2901999026566904e+00 6.7314253949197740e+00 1.4364899120380379e+01 1 -1 0
5159 444 1 4.1499999999999998e-01 2.1976786369638353e+00 6.9561794930677028e+00 1.4159472522825901e+01 1 -1 0
493 444 2 -8.2999999999999996e-01 7.4340508052765122e+00 7.1025689212072916e+00 1.0195256323363251e+01 1 -1 0
3594 444 1 4.1499999999999998e-01 9.1086703688335735e+00 4.4365955570603637e+00 1.0241169343691919e+01 -1 -1 0
4927 444 2 -8.2999999999999996e-01 7.7229357306224395e+00 1.9842611032427384e+00 1.0978904463537983e+01 1 -2 0
4929 444 1 4.1499999999999998e-01 6.8021409777114910e+00 1.8408667754134036e+00 1.0760256768352058e+01 1 -2 0
3104 444 1 4.1499999999999998e-01 4.7628533384402374e+00 7.4273371084810433e+00 1.0634651735104422e+01 -4 1 0
5306 444 1 4.1499999999999998e-01 8.0447394026058863e+00 5.7110581793915136e+00 1.3536723091852977e+01 -1 -5 0
5307 444 1 4.1499999999999998e-01 7.3284191407255754e+00 4.3987825631243131e+00 1.3298577598079847e+01 -1 -5 0
5305 444 2 -8.2999999999999996e-01 7.1765573679943495e+00 5.3083749425412323e+00 1.3555115737485712e+01 -1 -5 0
2794 444 2 -8.2999999999999996e-01 2.2753737358910562e+00 5.3264564523718896e+00 1.0000093489840369e+01 -1 -5 0
2795 444 1 4.1499999999999998e-01 2.6119905161750570e+00 5.1261007343206479e+00 1.0873465548433572e+01 -1 -5 0
1201 444 2 -8.2999999999999996e-01 1.0229751559593911e+01 6.1007536929908381e+00 1.3036545867022333e+01 0 1 0
1203 444 1 4.1499999999999998e-01 1.0083198931017348e+01 7.0084291591514152e+00 1.2770311363344701e+01 0 1 0
3105 444 1 4.1499999999999998e-01 4.0042348669117391e+00 6.6029146429358043e+00 9.6164569797244379e+00 -4 1 0
3103 444 2 -8.2999999999999996e-01 4.7720391411017058e+00 6.5809859393712484e+00 1.0187620231863695e+01 -4 1 0
840 444 1 4.1499999999999998e-01 7.3371255618532851e+00 2.0623401075037107e+00 1.2706407756222296e+01 3 -3 0
838 444 2 -8.2999999999999996e-01 7.0868328566535173e+00 2.1380997897330940e+00 1.3627193735049110e+01 3 -3 0
1202 444 1 4.1499999999999998e-01 1.0441584686009465e+01 5.6432206605715454e+00 1.2222897886070113e+01 0 1 0
495 444 1 4.1499999999999998e-01 6.4804767527697003e+00 7.0666179993058735e+00 1.0270327708937074e+01 1 -1 0
5593 444 2 -8.2999999999999996e-01 8.4341219354893457e+00 1.0905969540354583e+01 1.3797254928115834e+01 0 1 0
2037 444 1 4.1499999999999998e-01 4.0366728740579410e+00 9.4616470080823234e+00 1.1480929030567893e+01 1 2 0
494 444 1 4.1499999999999998e-01 7.6045266747963680e+00 7.0126622067386322e+00 9.2576601465542172e+00 1 -1 0
2036 444 1 4.1499999999999998e-01 4.6763055444019210e+00 8.2451416588866078e+00 1.2115657300990916e+01 1 2 0
3973 444 2 -8.2999999999999996e-01 7.0342528088755758e+00 1.0265214556328422e+01 1.0219645458267337e+01 -2 -1 0
337 444 2 -8.2999999999999996e-01 5.4929112568299354e+00 4.0948586296587592e+00 1.0562283566660547e+01 6 0 0
3975 444 1 4.1499999999999998e-01 6.4060574330231859e+00 9.7999864382190349e+00 1.0772063689533960e+01 -2 -1 0
3974 444 1 4.1499999999999998e-01 7.1826612440233344e+00 9.6782425934842635e+00 9.4782475636766890e+00 -2 -1 0
839 444 1 4.1499999999999998e-01 7.4700176398910445e+00 1.3664717983482404e+00 1.4044317542905489e+01 3 -3 0
338 444 1 4.1499999999999998e-01 5.1133084311843726e+00 4.9411729973106491e+00 1.0325882368241286e+01 6 0 0
959 444 1 4.1499999999999998e-01 5.5614341074238265e+00 1.5257055708267764e+00 9.2526922544134447e+00 2 -2 0
339 444 1 4.1499999999999998e-01 6.4385639901378591e+00 4.2414566744027340e+00 1.0540334824185647e+01 6 0 0
5594 444 1 4.1499999999999998e-01 8.3043632671762921e+00 1.0225794242582166e+01 1.3136379636529190e+01 0 1 0
5969 444 1 4.1499999999999998e-01 4.2607982261253445e+00 2.1481601692727059e+00 1.4018157217208106e+01 1 -2 0
4238 444 1 4.1499999999999998e-01 1.0744355880446385e+01 4.7334063514213182e-01 1.0781790590078479e+01 -1 3 0
5595 444 1 4.1499999999999998e-01 7.5489590724638784e+00 1.1185089519070212e+01 1.4031372559735274e+01 0 1 0
2796 444 1 4.1499999999999998e-01 2.1501908682169617e+00 4.4710952209860624e+00 9.5890964110553067e+00 -1 -5 0
5734 444 2 -8.2999999999999996e-01 1.1017662868960194e+00 9.9319926669492720e+00 1.3788492347389321e+01 -3 1 0
4646 444 1 4.1499999999999998e-01 3.6798335787535490e+00 2.4682719183962338e+00 1.6222289936326732e+01 4 6 0
2970 444 1 4.1499999999999998e-01 5.2509874022873504e+00 6.2166707886786341e+00 1.3207280288089320e+01 -1 1 0
2968 444 2 -8.2999999999999996e-01 4.5431563231273584e+00 6.8448143479530161e+00 1.3350955771272611e+01 -1 1 0
5968 444 2 -8.2999999999999996e-01 4.8176819311224550e+00 1.9685726095059224e+00 1.4775693073990723e+01 1 -2 0
958 444 2 -8.2999999999999996e-01 5.3142735456925250e+00 1.5699690780216087e+00 1.0176371971291891e+01 2 -2 0
5491 444 2 -8.2999999999999996e-01 9.2002044850045230e+00 8.2055037472711483e+00 1.1800555500065556e+01 -1 -1 0
5493 444 1 4.1499999999999998e-01 8.6092178219305922e+00 7.6765423474252001e+00 1.1264676465665367e+01 -1 -1 0
5736 444 1 4.1499999999999998e-01 8.9171660382241491e-01 9.1504786547250738e+00 1.4299713155476899e+01 -3 1 0
5970 444 1 4.1499999999999998e-01 5.7001330713077181e+00 2.1984561333070118e+00 1.4484719857256779e+01 1 -2 0
960 444 1 4.1499999999999998e-01 5.2256822095606044e+00 2.5058817924891006e+00 1.0356513031862592e+01 2 -2 0
2306 444 1 4.1499999999999998e-01 7.0134480255460740e-01 2.6294114544689351e+00 1.0239981060164336e+01 4 4 0
4239 444 1 4.1499999999999998e-01 9.5385722201077279e+00 1.2859379587990556e+00 1.0360285359680891e+01 -1 3 0
2307 444 1 4.1499999999999998e-01 1.7550031578581682e+00 1.8580952697850808e+00 9.4739715831888738e+00 4 4 0
2305 444 2 -8.2999999999999996e-01 1.6477645953040083e+00 2.5024398632563778e+00 1.0173651308711438e+01 4 4 0
5865 444 1 4.1499999999999998e-01 5.2933144933792127e+00 8.4930135795907287e+00 1.6190788119271257e+01 5 -4 0
3593 444 1 4.1499999999999998e-01 8.0243807506480955e+00 5.4496487178266131e+00 1.0541059781844064e+01 -1 -1 0
2035 444 2 -8.2999999999999996e-01 4.7628041210963854e+00 8.8468243381992409e+00 1.1376246852594665e+01 1 2 0
1508 444 1 4.1499999999999998e-01 2.3333335508961244e+00 1.0661794926770165e+01 1.2563780477154948e+01 2 1 0
4666 444 2 -8.2999999999999996e-01 1.3151906556472170e+00 4.0656904317799052e+00 1.4347866094109085e+01 0 -2 0
1507 444 2 -8.2999999999999996e-01 3.2058682645058889e+00 1.0811952242951651e+01 1.2199956181938706e+01 2 1 0
4928 444 1 4.1499999999999998e-01 7.9245663635783776e+00 2.8463340372640715e+00 1.0615026487343648e+01 1 -2 0
4401 444 1 4.1499999999999998e-01 6.7875781250927814e+00 5.1471807343497833e+00 1.5145954761711645e+01 -2 2 0
4399 444 2 -8.2999999999999996e-01 6.7080437040151457e+00 4.9185266487805235e+00 1.6072034375420980e+01 -2 2 0
5641 444 2 -8.2999999999999996e-01 2.8829422121278041e+00 2.3810766212198264e+00 1.2483979172683352e+01 -2 3 0
5735 444 1 4.1499999999999998e-01 7.1124604829676330e-01 9.7692295142537500e+00 1.2929869094566925e+01 -3 1 0
4667 444 1 4.1499999999999998e-01 1.8655543786190161e+00 3.5812969916788049e+00 1.3732484169398029e+01 0 -2 0
4154 444 1 4.1499999999999998e-01 3.8781177556808921e+00 5.2792010452937477e-01 1.0757820447617815e+01 1 2 0
3649 444 2 -8.2999999999999996e-01 1.0459857064595955e+01 1.4230516273019860e+00 1.3259257454079828e+01 3 1 0
5802 444 1 4.1499999999999998e-01 9.2357607560749144e-01 1.1671908062142281e+01 9.9399742735305257e+00 -1 -1 0
4668 444 1 4.1499999999999998e-01 5.6492333799344774e-01 3.4916153996214394e+00 1.4502036772460807e+01 0 -2 0
5459 444 1 4.1499999999999998e-01 1.1749640459722517e+00 2.5028711787857216e-01 1.1444553433517102e+01 2 3 0
5492 444 1 4.1499999999999998e-01 9.4717000966462859e+00 8.9200862493319395e+00 1.1224453296936924e+01 -1 -1 0
4542 444 1 4.1499999999999998e-01 7.2024364108684340e+00 4.3879420262560903e-01 1.5721308729047381e+01 2 1 0
5228 444 1 4.1499999999999998e-01 8.7001828902058442e-01 7.4956286419227229e+00 1.6151147707199421e+01 -4 -1 0
2969 444 1 4.1499999999999998e-01 4.7168866010712067e+00 7.2076209692493087e+00 1.4219529846575961e+01 -1 1 0
1237 444 2 -8.2999999999999996e-01 4.1752139373554237e-01 7.2340483235534929e+00 9.9294129380570322e+00 0 3 0
5368 444 2 -8.2999999999999996e-01 1.0077716481862254e+01 1.0449674764529661e+01 1.0299737516678531e+01 0 0 0
5674 444 2 -8.2999999999999996e-01 1.0113040873292778e+01 3.1384899258764420e+00 1.5204179429425396e+01 -3 1 0
1239 444 1 4.1499999999999998e-01 8.6313736495356552e-01 7.7825753917642730e+00 9.2838308288337696e+00 0 3 0
5642 444 1 4.1499999999999998e-01 3.2918882548246082e+00 1.5536422318305942e+00 1.2230311911508593e+01 -2 3 0
5643 444 1 4.1499999999999998e-01 2.4448882896130213e+00 2.6858171477807780e+00 1.1689325879162221e+01 -2 3 0
5675 444 1 4.1499999999999998e-01 1.0345636728286761e+01 2.7144867061724338e+00 1.4378132446690449e+01 -3 1 0
4684 444 2 -8.2999999999999996e-01 1.1017975663142050e+01 1.0341167993610707e+01 1.4860657817431063e+01 -3 1 0
5458 444 2 -8.2999999999999996e-01 2.6546839613842788e-01 1.0993439841077400e-01 1.1181206915799450e+01 2 3 0
5370 444 1 4.1499999999999998e-01 9.1927802317429279e+00 1.0721645750588481e+01 1.0542948213652584e+01 0 0 0
1443 444 1 4.1499999999999998e-01 4.2236425056548175e+00 1.1080752310468783e-01 1.5130914310946833e+01 -1 0 0
4686 444 1 4.1499999999999998e-01 1.0236051219763420e+01 1.0628068346152588e+01 1.4388943718663722e+01 -3 1 0
2390 444 1 4.1499999999999998e-01 1.2249800958173440e+00 1.1547013118313748e+01 1.4527434847896703e+01 2 -1 0
5863 444 2 -8.2999999999999996e-01 4.9028700177729156e+00 7.7575646064308081e+00 1.5718664426077838e+01 5 -4 0
2484 444 1 4.1499999999999998e-01 1.1366331506537268e+01 9.2971915282107105e+00 1.0278280183820311e+01 -1 1 0
5369 444 1 4.1499999999999998e-01 1.0564250185377785e+01 1.1269023195522928e+01 1.0209266841989512e+01 0 0 0
4920 444 1 4.1499999999999998e-01 8.6682108584935218e+00 2.5293465762283485e+00 1.6060255892865996e+01 2 2 0
4964 444 1 4.1499999999999998e-01 1.1129656668946623e+01 5.7807909637457344e+00 1.4484467373714944e+01 -1 1 0
4237 444 2 -8.2999999999999996e-01 1.0479795020202234e+01 1.3552363828839180e+00 1.0520065655072802e+01 -1 3 0
1231 444 2 -8.2999999999999996e-01 1.0939658222926097e+01 4.3947927791408512e+00 1.1007972300946305e+01 -5 2 0
3651 444 1 4.1499999999999998e-01 1.0136487061519603e+01 1.9082754903164758e+00 1.2500164726972729e+01 3 1 0
5840 444 1 4.1499999999999998e-01 3.4035522855207039e+00 1.1462589411624402e+01 1.5036783780117178e+01 4 -3 0
5839 444 2 -8.2999999999999996e-01 4.0212797524484403e+00 1.1393926051709387e+01 1.5764746563086634e+01 4 -3 0
5676 444 1 4.1499999999999998e-01 1.0663518042386725e+01 3.9209326781065710e+00 1.5235649638223650e+01 -3 1 0
3650 444 1 4.1499999999999998e-01 1.0119008646938937e+01 5.3652657489342837e-01 1.3140394741346551e+01 3 1 0
3772 444 2 -8.2999999999999996e-01 8.4535683724821453e-02 1.2026021505604847e+00 1.5098555545725006e+01 0 0 0
3773 444 1 4.1499999999999998e-01 9.9418249672340531e-01 1.0731399902619052e+00 1.5366909752600229e+01 0 0 0
1232 444 1 4.1499999999999998e-01 1.1349996981503987e+01 3.5314514551716574e+00 1.1057929186298836e+01 -5 2 0
3966 444 1 4.1499999999999998e-01 2.0433596706354251e-02 2.8960124964794414e+00 2.3679746650653559e+01 -1 0 0
4529 444 1 4.1499999999999998e-01 6.4950425850694167e+00 8.6849289920340467e-01 1.8827536284898812e+01 0 2 0
1773 444 1 4.1499999999999998e-01 7.5028768801647083e-01 2.3860964549858776e-01 2.1693186477202723e+01 6 -1 0
1636 444 2 -8.2999999999999996e-01 1.4735309353472043e-01 2.4902002460919950e-01 1.8420947136181866e+01 4 4 0
5901 444 1 4.1499999999999998e-01 3.0414276861573653e-01 3.1744517237910888e+00 1.7764175273381106e+01 1 2 0
5478 444 1 4.1499999999999998e-01 5.3077856463989281e+00 1.1319746792670403e+01 2.0253996111407904e+01 1 3 0
3519 444 1 4.1499999999999998e-01 5.0161080409483048e-02 1.1306302518169803e+01 2.0587771211862727e+01 2 -2 0
4400 444 1 4.1499999999999998e-01 6.5310805980047038e+00 5.7508474690006626e+00 1.6510392625139286e+01 -2 2 0
5864 444 1 4.1499999999999998e-01 4.3879776355434439e+00 7.2943979699232635e+00 1.6379417832462035e+01 5 -4 0
3849 444 1 4.1499999999999998e-01 6.7314914756481059e+00 5.9329854759134854e-02 2.1157643935292299e+01 2 -2 0
4645 444 2 -8.2999999999999996e-01 3.2923668724515687e+00 2.3430656252843578e+00 1.7088560993080058e+01 4 6 0
5477 444 1 4.1499999999999998e-01 6.1613758482238072e+00 1.0114176265675122e+01 2.0585475656742481e+01 1 3 0
3886 444 2 -8.2999999999999996e-01 5.5674248763617582e+00 9.9476591295400496e+00 1.7290234260346455e+01 -1 -1 0
3887 444 1 4.1499999999999998e-01 6.1780106687870271e+00 1.0656271607377315e+01 1.7493421639962961e+01 -1 -1 0
5229 444 1 4.1499999999999998e-01 1.8694945546415911e+00 7.9890519561232987e+00 1.7175586980994463e+01 -4 -1 0
5227 444 2 -8.2999999999999996e-01 1.1436228735098550e+00 8.2814126037314413e+00 1.6624345273663067e+01 -4 -1 0
4647 444 1 4.1499999999999998e-01 3.7580983985693961e+00 1.5905340437699418e+00 1.7453283978404666e+01 4 6 0
901 444 2 -8.2999999999999996e-01 1.6216611681051201e+00 1.0877836889328680e+01 1.7954373159804803e+01 1 -1 0
902 444 1 4.1499999999999998e-01 1.6037153811736558e+00 1.0615304995216428e+01 1.8874692265935202e+01 1 -1 0
3888 444 1 4.1499999999999998e-01 4.8344621305626978e+00 1.0380560042521775e+01 1.6852519447211659e+01 -1 -1 0
3551 444 1 4.1499999999999998e-01 3.8122327133869702e+00 5.8644202884390528e-01 2.3719083513941158e+01 -2 0 0
3736 444 2 -8.2999999999999996e-01 4.4336885266321344e+00 9.2218944799236457e-01 1.9242998433923017e+01 1 0 0
903 444 1 4.1499999999999998e-01 1.2959270995714347e+00 1.0112805037057139e+01 1.7480183170527607e+01 1 -1 0
3623 444 1 4.1499999999999998e-01 9.6875503516481114e+00 1.0361409597738181e+01 2.2520474135452272e+01 0 6 0
5444 444 1 4.1499999999999998e-01 1.3555315430672863e+00 2.4269567473617584e+00 2.2143470123516511e+01 -8 0 0
2328 444 1 4.1499999999999998e-01 3.8442592004038039e+00 8.4899852160485541e+00 2.2357839156808328e+01 0 -1 0
5558 444 1 4.1499999999999998e-01 4.3216272490304544e+00 4.0184391667569166e+00 1.7998720711490545e+01 -1 1 0
5557 444 2 -8.2999999999999996e-01 5.1789995923937759e+00 4.3508829338174744e+00 1.8264476208465350e+01 -1 1 0
2327 444 1 4.1499999999999998e-01 4.2938199722572268e+00 8.6220589041933096e+00 2.0918274210191541e+01 0 -1 0
2326 444 2 -8.2999999999999996e-01 4.2350919385962094e+00 9.1084454030120199e+00 2.1740595431400855e+01 0 -1 0
672 444 1 4.1499999999999998e-01 2.8465739841515725e+00 2.4580695929058218e+00 2.3983840803244451e+01 -1 2 0
323 444 1 4.1499999999999998e-01 5.8321373550714970e+00 2.9571639973664960e+00 2.1208195058930819e+01 2 1 0
5445 444 1 4.1499999999999998e-01 2.3892710181810743e+00 3.4617026049573765e+00 2.1752856592693345e+01 -8 0 0
322 444 2 -8.2999999999999996e-01 5.5565939699032185e+00 2.0841121185152645e+00 2.1487638881103042e+01 2 1 0
1319 444 1 4.1499999999999998e-01 3.1947053643313685e+00 6.8814160817931258e+00 2.4244784974283093e+01 2 -3 0
1320 444 1 4.1499999999999998e-01 3.2363051180750158e+00 6.2863569971041642e+00 2.2853357900066332e+01 2 -3 0
5178 444 1 4.1499999999999998e-01 7.4047493673800480e+00 4.3284983591596955e+00 2.0216989095399246e+01 3 -1 0
5559 444 1 4.1499999999999998e-01 5.6994394093548628e+00 4.3418175034832167e+00 1.7461174959122580e+01 -1 1 0
324 444 1 4.1499999999999998e-01 4.9508781350545599e+00 2.2438241256699971e+00 2.2211402029481839e+01 2 1 0
5176 444 2 -8.2999999999999996e-01 6.5349130500310668e+00 4.4461156863434619e+00 2.0598804067365752e+01 3 -1 0
5861 444 1 4.1499999999999998e-01 8.3839719607493297e+00 3.6516364023721013e+00 1.8784241627364942e+01 -1 3 0
5177 444 1 4.1499999999999998e-01 5.9560717484686574e+00 4.5635943235704639e+00 1.9845562203625885e+01 3 -1 0
4528 444 2 -8.2999999999999996e-01 7.1435985629350256e+00 5.9049375742295440e-01 1.8180756846636093e+01 0 2 0
5476 444 2 -8.2999999999999996e-01 6.1593658667379643e+00 1.0922203732633035e+01 2.0072328475327069e+01 1 3 0
4889 444 1 4.1499999999999998e-01 1.3631199175923929e+00 5.7350310185705426e+00 2.0282364430168428e+01 0 4 0
4888 444 2 -8.2999999999999996e-01 2.2343233077520619e+00 5.7564102495172200e+00 1.9886410796055593e+01 0 4 0
4958 444 1 4.1499999999999998e-01 3.9426408499555969e+00 7.8303265265114108e+00 1.8180668940137824e+01 -1 0 0
2150 444 1 4.1499999999999998e-01 1.8746812426946857e+00 2.7374937407843625e+00 1.9642852496732338e+01 0 3 0
1318 444 2 -8.2999999999999996e-01 3.1365863284930717e+00 7.1168085454292749e+00 2.3318802028452399e+01 2 -3 0
4957 444 2 -8.2999999999999996e-01 3.1864237995694409e+00 7.4572427424875363e+00 1.7727705293945935e+01 -1 0 0
2151 444 1 4.1499999999999998e-01 2.2785292250686524e+00 2.9582098064657267e+00 1.8200602023084663e+01 0 3 0
2149 444 2 -8.2999999999999996e-01 1.5971709788243906e+00 3.1738654905187063e+00 1.8837371542012697e+01 0 3 0
4959 444 1 4.1499999999999998e-01 2.7739459227092755e+00 6.8884034259044329e+00 1.8377717322676769e+01 -1 0 0
5443 444 2 -8.2999999999999996e-01 1.8422628557358458e+00 2.7642799824451036e+00 2.1391447463945731e+01 -8 0 0
439 444 2 -8.2999999999999996e-01 7.1046044516531390e+00 8.2570660597435488e+00 2.1386126620516759e+01 -3 2 0
440 444 1 4.1499999999999998e-01 7.8605794715657540e+00 8.8108001078974443e+00 2.1581351309824790e+01 -3 2 0
3737 444 1 4.1499999999999998e-01 4.4348046106570846e+00 1.3690334319901583e+00 2.0089498055650996e+01 1 0 0
441 444 1 4.1499999999999998e-01 7.0131482389331445e+00 7.6956545598339732e+00 2.2155986915005826e+01 -3 2 0
4890 444 1 4.1499999999999998e-01 2.1999063227708961e+00 5.0955175033434106e+00 1.9194841704363963e+01 0 4 0
3863 444 1 4.1499999999999998e-01 6.8306912843024143e+00 1.1829856953048246e+00 2.3795860626100314e+01 1 -1 0
360 444 1 4.1499999999999998e-01 5.0526675405443848e+00 9.8575327089884563e+00 2.3824071630805484e+01 -1 2 0
2677 444 2 -8.2999999999999996e-01 5.2696847016509771e+00 8.2934410003203887e+00 1.9476488898903476e+01 -2 -4 0
670 444 2 -8.2999999999999996e-01 3.7727190761272844e+00 2.3779522591817877e+00 2.3755656075204033e+01 -1 2 0
1637 444 1 4.1499999999999998e-01 3.2827062998833101e-01 1.1889582105856009e+00 1.8425055763459930e+01 4 4 0
2678 444 1 4.1499999999999998e-01 6.1471221573952635e+00 8.2525647794272636e+00 1.9856837839998409e+01 -2 -4 0
5862 444 1 4.1499999999999998e-01 9.4382853082173366e+00 4.7369569461013379e+00 1.8833209582266946e+01 -1 3 0
5860 444 2 -8.2999999999999996e-01 8.8621026740947766e+00 4.2155982147752882e+00 1.9392164510003457e+01 -1 3 0
2679 444 1 4.1499999999999998e-01 5.2765346638382358e+00 9.0875320647725228e+00 1.8942068468537105e+01 -2 -4 0
3734 444 1 4.1499999999999998e-01 4.7728997985778276e+00 4.6153355770828917e+00 2.1841320025867514e+01 -1 -2 0
3733 444 2 -8.2999999999999996e-01 3.8474343300513492e+00 4.8072443260843700e+00 2.1992702745124422e+01 -1 -2 0
3735 444 1 4.1499999999999998e-01 3.5128999095023614e+00 5.0678939182607579e+00 2.1134576328883075e+01 -1 -2 0
5055 444 1 4.1499999999999998e-01 3.6197040088042711e+00 1.1071583313728455e+01 2.1419236804726019e+01 4 -3 0
4919 444 1 4.1499999999999998e-01 7.6490420249241824e+00 3.5909826146380590e+00 1.6415388210019525e+01 2 2 0
4530 444 1 4.1499999999999998e-01 7.2295377184668785e+00 1.3388204688279333e+00 1.7590117918357361e+01 0 2 0
2316 444 1 4.1499999999999998e-01 9.7680358479205598e+00 4.4149176648615196e+00 2.1547169852527698e+01 1 0 0
4918 444 2 -8.2999999999999996e-01 7.9178212417479497e+00 2.6977503487092371e+00 1.6630157162144059e+01 2 2 0
114 444 1 4.1499999999999998e-01 1.0465133098900139e+01 1.0778148831087748e+01 1.6751650505512956e+01 -4 -2 0
2619 444 1 4.1499999999999998e-01 5.1384152241642966e-01 9.2204124576436932e+00 2.2926247033353608e+01 -2 -4 0
5602 444 2 -8.2999999999999996e-01 1.1346472255064434e+01 7.1003350548595110e+00 1.8946522056205517e+01 -2 1 0
1776 444 1 4.1499999999999998e-01 8.1524148399560534e+00 6.2049018160535931e+00 2.2457135381371678e+01 -11 3 0
1774 444 2 -8.2999999999999996e-01 7.6449593361562744e+00 5.9594907786738940e+00 2.3230759557099532e+01 -11 3 0
1359 444 1 4.1499999999999998e-01 9.8249267227281436e+00 1.1702899122050701e-01 2.1480526316658864e+01 -2 0 0
621 444 1 4.1499999999999998e-01 9.9699148791183845e+00 8.0464820360823222e+00 2.1625770831118061e+01 -3 2 0
1080 444 1 4.1499999999999998e-01 1.1326174406725555e+01 2.1750135997929947e+00 1.7931964484203078e+01 1 3 0
3622 444 2 -8.2999999999999996e-01 9.4703249406507535e+00 9.7599089037349547e+00 2.1808264571213428e+01 0 6 0
620 444 1 4.1499999999999998e-01 9.9278558231170599e+00 7.1560933253257399e+00 2.0402114677090275e+01 -3 2 0
2314 444 2 -8.2999999999999996e-01 1.0226333847414846e+01 3.7821417847366283e+00 2.2100152378833528e+01 1 0 0
3664 444 2 -8.2999999999999996e-01 7.8269753740066976e+00 2.5498611084744640e+00 2.3243975521464574e+01 -3 -4 0
3862 444 2 -8.2999999999999996e-01 6.5820062598302185e+00 3.4265202309732218e-01 2.4180862937410353e+01 1 -1 0
3624 444 1 4.1499999999999998e-01 9.5459985725469600e+00 1.0290070135570319e+01 2.1014894559125601e+01 0 6 0
3518 444 1 4.1499999999999998e-01 4.5538864495471570e-01 9.8726964043256373e+00 2.0856953815765888e+01 2 -2 0
1078 444 2 -8.2999999999999996e-01 1.1224805027170989e+01 1.5458908337088084e+00 1.7217708868624722e+01 1 3 0
619 444 2 -8.2999999999999996e-01 1.0065967756026003e+01 7.1351958746625002e+00 2.1349068088613940e+01 -3 2 0
3666 444 1 4.1499999999999998e-01 8.6675900428490102e+00 2.1174188863903063e+00 2.3394284051547231e+01 -3 -4 0
4090 444 2 -8.2999999999999996e-01 8.8427650945970839e+00 1.1240280324288070e+01 1.9718987351309181e+01 -2 -2 0
2617 444 2 -8.2999999999999996e-01 1.1957865885780556e+00 9.3286016890542172e+00 2.3589178314588032e+01 -2 -4 0
3964 444 2 -8.2999999999999996e-01 7.4006586346113967e-01 2.4496287521488012e+00 2.4125955984538983e+01 -1 0 0