LAMMPS data file via write_data, version 11 Aug 2017, timestep = 5000000

7154 atoms
4 atom types
4000 bonds
1 bond types
2000 angles
1 angle types

0.0000000000000000e+00 4.5679949999999998e+01 xlo xhi
0.0000000000000000e+00 4.6885919999999999e+01 ylo yhi
0.0000000000000000e+00 6.5000000000000000e+01 zlo zhi

Masses

1 1.0079
2 15.9994
3 22.9898
4 107.868

Bond Coeffs # harmonic

1 450 0.9572

Angle Coeffs # harmonic

1 55 104.52

Atoms # full

6003 444 4 0.0000000000000000e+00 1.6907200000000000e+00 0.0000000000000000e+00 0.0000000000000000e+00 0 0 0
6004 444 4 0.0000000000000000e+00 4.2285000000000004e+00 1.4651900000000000e+00 0.0000000000000000e+00 0 0 0
6005 444 4 -6.9400000000000000e-03 1.6907700000000001e+00 0.0000000000000000e+00 7.1781499999999996e+00 0 0 0
6006 444 4 -6.9400000000000000e-03 4.2285500000000003e+00 1.4651900000000000e+00 7.1781499999999996e+00 0 0 0
6007 444 4 0.0000000000000000e+00 2.5366499999999998e+00 1.4651900000000000e+00 2.3926400000000001e+00 0 0 0
6008 444 4 0.0000000000000000e+00 5.0744199999999999e+00 0.0000000000000000e+00 2.3926400000000001e+00 0 0 0
6009 444 4 0.0000000000000000e+00 8.4509000000000001e-01 1.4651900000000000e+00 4.7824200000000001e+00 0 0 0
6010 444 4 0.0000000000000000e+00 3.3828600000000000e+00 0.0000000000000000e+00 4.7824499999999999e+00 0 0 0
6011 444 4 0.0000000000000000e+00 1.6907200000000000e+00 2.9303699999999999e+00 0.0000000000000000e+00 0 0 0
6012 444 4 0.0000000000000000e+00 4.2285000000000004e+00 4.3955599999999997e+00 0.0000000000000000e+00 0 0 0
6013 444 4 -6.9400000000000000e-03 1.6907700000000001e+00 2.9303699999999999e+00 7.1781899999999998e+00 0 0 0
6014 444 4 -6.9400000000000000e-03 4.2285500000000003e+00 4.3955599999999997e+00 7.1781600000000001e+00 0 0 0
6015 444 4 0.0000000000000000e+00 2.5366499999999998e+00 4.3955599999999997e+00 2.3926400000000001e+00 0 0 0
6016 444 4 0.0000000000000000e+00 5.0744199999999999e+00 2.9303699999999999e+00 2.3926400000000001e+00 0 0 0
6017 444 4 0.0000000000000000e+00 8.4509000000000001e-01 4.3955599999999997e+00 4.7824499999999999e+00 0 0 0
6018 444 4 0.0000000000000000e+00 3.3828700000000000e+00 2.9303699999999999e+00 4.7824400000000002e+00 0 0 0
6019 444 4 0.0000000000000000e+00 1.6907200000000000e+00 5.8607399999999998e+00 0.0000000000000000e+00 0 0 0
6020 444 4 0.0000000000000000e+00 4.2285000000000004e+00 7.3259299999999996e+00 0.0000000000000000e+00 0 0 0
6021 444 4 -6.9400000000000000e-03 1.6907700000000001e+00 5.8607399999999998e+00 7.1781499999999996e+00 0 0 0
6022 444 4 -6.9400000000000000e-03 4.2285500000000003e+00 7.3259299999999996e+00 7.1781499999999996e+00 0 0 0
6023 444 4 0.0000000000000000e+00 2.5366499999999998e+00 7.3259299999999996e+00 2.3926400000000001e+00 0 0 0
6024 444 4 0.0000000000000000e+00 5.0744199999999999e+00 5.8607399999999998e+00 2.3926400000000001e+00 0 0 0
6025 444 4 0.0000000000000000e+00 8.4509000000000001e-01 7.3259299999999996e+00 4.7824200000000001e+00 0 0 0
6026 444 4 0.0000000000000000e+00 3.3828600000000000e+00 5.8607399999999998e+00 4.7824499999999999e+00 0 0 0
6131 444 4 0.0000000000000000e+00 6.7662699999999996e+00 0.0000000000000000e+00 0.0000000000000000e+00 0 0 0
6133 444 4 -6.9400000000000000e-03 6.7663200000000003e+00 0.0000000000000000e+00 7.1781499999999996e+00 0 0 0
6135 444 4 0.0000000000000000e+00 7.6121999999999996e+00 1.4651900000000000e+00 2.3926400000000001e+00 0 0 0
6137 444 4 0.0000000000000000e+00 5.9206399999999997e+00 1.4651900000000000e+00 4.7824200000000001e+00 0 0 0
6139 444 4 0.0000000000000000e+00 6.7662699999999996e+00 2.9303699999999999e+00 0.0000000000000000e+00 0 0 0
6141 444 4 -6.9400000000000000e-03 6.7663200000000003e+00 2.9303699999999999e+00 7.1781899999999998e+00 0 0 0
6143 444 4 0.0000000000000000e+00 7.6121999999999996e+00 4.3955599999999997e+00 2.3926400000000001e+00 0 0 0
6145 444 4 0.0000000000000000e+00 5.9206399999999997e+00 4.3955599999999997e+00 4.7824499999999999e+00 0 0 0
6147 444 4 0.0000000000000000e+00 6.7662699999999996e+00 5.8607399999999998e+00 0.0000000000000000e+00 0 0 0
6149 444 4 -6.9400000000000000e-03 6.7663200000000003e+00 5.8607399999999998e+00 7.1781499999999996e+00 0 0 0
6151 444 4 0.0000000000000000e+00 7.6121999999999996e+00 7.3259299999999996e+00 2.3926400000000001e+00 0 0 0
6153 444 4 0.0000000000000000e+00 5.9206399999999997e+00 7.3259299999999996e+00 4.7824200000000001e+00 0 0 0
6132 444 4 0.0000000000000000e+00 9.3040500000000002e+00 1.4651900000000000e+00 0.0000000000000000e+00 0 0 0
6134 444 4 -6.9400000000000000e-03 9.3041000000000000e+00 1.4651900000000000e+00 7.1781499999999996e+00 0 0 0
6136 444 4 0.0000000000000000e+00 1.0149970000000000e+01 0.0000000000000000e+00 2.3926400000000001e+00 0 0 0
6138 444 4 0.0000000000000000e+00 8.4584100000000007e+00 0.0000000000000000e+00 4.7824499999999999e+00 0 0 0
6140 444 4 0.0000000000000000e+00 9.3040500000000002e+00 4.3955599999999997e+00 0.0000000000000000e+00 0 0 0
6142 444 4 -6.9400000000000000e-03 9.3041000000000000e+00 4.3955599999999997e+00 7.1781600000000001e+00 0 0 0
6144 444 4 0.0000000000000000e+00 1.0149970000000000e+01 2.9303699999999999e+00 2.3926400000000001e+00 0 0 0
6146 444 4 0.0000000000000000e+00 8.4584200000000003e+00 2.9303699999999999e+00 4.7824400000000002e+00 0 0 0
6148 444 4 0.0000000000000000e+00 9.3040500000000002e+00 7.3259299999999996e+00 0.0000000000000000e+00 0 0 0
6150 444 4 -6.9400000000000000e-03 9.3041000000000000e+00 7.3259299999999996e+00 7.1781499999999996e+00 0 0 0
6152 444 4 0.0000000000000000e+00 1.0149970000000000e+01 5.8607399999999998e+00 2.3926400000000001e+00 0 0 0
6154 444 4 0.0000000000000000e+00 8.4584100000000007e+00 5.8607399999999998e+00 4.7824499999999999e+00 0 0 0
6265 444 4 0.0000000000000000e+00 1.0996190000000000e+01 1.4651900000000000e+00 4.7824200000000001e+00 0 0 0
6273 444 4 0.0000000000000000e+00 1.0996190000000000e+01 4.3955599999999997e+00 4.7824499999999999e+00 0 0 0
6281 444 4 0.0000000000000000e+00 1.0996190000000000e+01 7.3259299999999996e+00 4.7824200000000001e+00 0 0 0
4613 444 1 4.1499999999999998e-01 2.2496216830460702e+00 2.4621528801465424e+00 1.3668088386618763e+01 -3 0 0
461 444 1 4.1499999999999998e-01 9.2196967024099976e+00 3.4700625242577807e+00 1.0113297372403775e+01 2 -5 0
462 444 1 4.1499999999999998e-01 1.0370924672531775e+01 2.4889469008488923e+00 1.0176397897474658e+01 2 -5 0
2385 444 1 4.1499999999999998e-01 3.2091575021831442e+00 1.9328218834991768e+00 1.0757199932421294e+01 -6 -1 0
3661 444 2 -8.2999999999999996e-01 8.3551289896318721e+00 6.1606143062116392e-01 1.3455228390922210e+01 0 5 0
3663 444 1 4.1499999999999998e-01 8.3482610279810636e+00 1.1161234943262623e+00 1.2639064950518305e+01 0 5 0
649 444 2 -8.2999999999999996e-01 7.2050410219068208e+00 4.0305581192740076e+00 1.0665691601240461e+01 0 -4 0
4614 444 1 4.1499999999999998e-01 2.2192066163672099e+00 9.4902394600488771e-01 1.3705662824771027e+01 -3 0 0
651 444 1 4.1499999999999998e-01 7.1592929011119750e+00 3.0873171916578777e+00 1.0509370553127658e+01 0 -4 0
4612 444 2 -8.2999999999999996e-01 2.7268332659499088e+00 1.7035735630893154e+00 1.4004331167146564e+01 -3 0 0
650 444 1 4.1499999999999998e-01 6.4689785306004879e+00 4.2129962056223560e+00 1.1249781795844999e+01 0 -4 0
2331 444 1 4.1499999999999998e-01 1.8033625363600592e+00 4.2918812063679255e+00 1.2084661893784260e+01 4 1 0
2329 444 2 -8.2999999999999996e-01 1.7855830710307252e+00 3.8573673931267898e+00 1.2937371732411448e+01 4 1 0
2330 444 1 4.1499999999999998e-01 9.8619418186084240e-01 3.3310862557517220e+00 1.2921922191153751e+01 4 1 0
5599 444 2 -8.2999999999999996e-01 5.0892057437854339e+00 4.9378151362619080e+00 1.2317330880830374e+01 -2 -2 0
5601 444 1 4.1499999999999998e-01 4.9818829234082118e+00 4.4393888778798720e+00 1.3127445214395314e+01 -2 -2 0
5600 444 1 4.1499999999999998e-01 4.2636715967610481e+00 4.8148033041929947e+00 1.1848722310925870e+01 -2 -2 0
428 444 1 4.1499999999999998e-01 4.4407193358939159e+00 6.4773939241987328e+00 1.0004937418683626e+01 3 0 0
2095 444 2 -8.2999999999999996e-01 8.1450791360293273e+00 5.0895057565399373e+00 1.3104581603695323e+01 -2 1 0
2096 444 1 4.1499999999999998e-01 8.9549732682980050e+00 4.5794238955770634e+00 1.3115541494527566e+01 -2 1 0
427 444 2 -8.2999999999999996e-01 4.4479819228443516e+00 7.4085336405134026e+00 1.0226653738958165e+01 3 0 0
2097 444 1 4.1499999999999998e-01 7.7940382299528110e+00 4.9635416376295085e+00 1.2223028625285734e+01 -2 1 0
3210 444 1 4.1499999999999998e-01 7.5869207303918866e+00 5.7150225952861895e+00 9.9854837210955729e+00 -5 3 0
3209 444 1 4.1499999999999998e-01 8.9199866502707010e+00 6.2497629882363546e+00 1.0463901477517110e+01 -5 3 0
3208 444 2 -8.2999999999999996e-01 8.0364135300778550e+00 6.5265801661224749e+00 1.0221201252311213e+01 -5 3 0
4486 444 2 -8.2999999999999996e-01 3.1757068262320871e+00 4.4466817784666741e+00 1.0287249224520894e+01 0 3 0
2383 444 2 -8.2999999999999996e-01 2.5145330961502954e+00 2.0053055222032725e+00 1.0102619801188368e+01 -6 -1 0
5492 444 1 4.1499999999999998e-01 4.2092815480629264e+00 1.1026137192396053e+00 1.2596717827064959e+01 1 3 0
5491 444 2 -8.2999999999999996e-01 4.4457662149478052e+00 1.5025095490810525e+00 1.1759824567021093e+01 1 3 0
5615 444 1 4.1499999999999998e-01 7.1573252966796090e+00 4.2296244019360145e+00 1.4084659181854176e+01 0 -3 0
4467 444 1 4.1499999999999998e-01 1.8898863503831529e+00 4.5774629745355275e+00 1.4645304770722836e+01 5 3 0
833 444 1 4.1499999999999998e-01 8.1450595994170261e+00 6.4521344315056846e+00 1.4763169361233111e+01 5 4 0
5493 444 1 4.1499999999999998e-01 4.9326096117344100e+00 8.2055981115541154e-01 1.1297049363420514e+01 1 3 0
5616 444 1 4.1499999999999998e-01 6.8258768330814483e+00 4.1958397461930019e+00 1.5561444970137474e+01 0 -3 0
5614 444 2 -8.2999999999999996e-01 6.4235233280060218e+00 4.1500991606150306e+00 1.4694120666820755e+01 0 -3 0
4465 444 2 -8.2999999999999996e-01 1.8204352998023114e+00 4.9816973584382449e+00 1.5510176589562377e+01 5 3 0
832 444 2 -8.2999999999999996e-01 8.3957041767809795e+00 7.0610756187064281e+00 1.5457863409280485e+01 5 4 0
910 444 2 -8.2999999999999996e-01 7.8264479304560410e+00 1.3211884220114511e+00 1.0416609193210638e+01 1 1 0
4466 444 1 4.1499999999999998e-01 8.7911750307475001e-01 5.0752425064880269e+00 1.5656471453962586e+01 5 3 0
460 444 2 -8.2999999999999996e-01 1.0163156577902930e+01 3.4189611753223956e+00 1.0266609600412297e+01 2 -5 0
911 444 1 4.1499999999999998e-01 6.9653463264269853e+00 9.9587099194711881e-01 1.0154112508810909e+01 1 1 0
912 444 1 4.1499999999999998e-01 8.4057755053591130e+00 5.6421471707175963e-01 1.0329417776065322e+01 1 1 0
834 444 1 4.1499999999999998e-01 9.0290180860031519e+00 6.5750893461252868e+00 1.5986032771699538e+01 5 4 0
4488 444 1 4.1499999999999998e-01 2.4020868527208643e+00 4.8028251481515127e+00 9.8503214136441439e+00 0 3 0
4190 444 1 4.1499999999999998e-01 9.5840350616222842e+00 2.8508216836830191e-01 1.6011777125915540e+01 2 -5 0
4191 444 1 4.1499999999999998e-01 9.3315395341900498e+00 1.0299157064414881e+00 1.4718191150220209e+01 2 -5 0
2384 444 1 4.1499999999999998e-01 2.1353592249967028e+00 1.1276009104327744e+00 1.0056862983685539e+01 -6 -1 0
4189 444 2 -8.2999999999999996e-01 9.8183522403528407e+00 1.0846197525814891e+00 1.5540537145574808e+01 2 -5 0
4487 444 1 4.1499999999999998e-01 3.1901543824542791e+00 3.5234589803522849e+00 1.0034894401066612e+01 0 3 0
267 444 1 4.1499999999999998e-01 7.6341811914505886e-01 2.5650233984697728e+00 1.0006322440144523e+01 -1 -2 0
5182 444 2 -8.2999999999999996e-01 5.2470709320553022e-01 5.2592455427010441e+00 1.0422830129468668e+01 5 -2 0
3651 444 1 4.1499999999999998e-01 1.0448450897385795e+01 2.6181331606692151e+00 1.5248887606621972e+01 4 -1 0
3435 444 1 4.1499999999999998e-01 2.3668275621345582e+00 6.6124646910884213e+00 1.6222157431780847e+01 4 -4 0
5851 444 2 -8.2999999999999996e-01 5.3613421480815715e+00 1.7015067973759406e+00 1.5299336644725887e+01 5 5 0
5853 444 1 4.1499999999999998e-01 4.4836769231982112e+00 1.8349943559385338e+00 1.4941402691581317e+01 5 5 0
5852 444 1 4.1499999999999998e-01 5.6945159713772080e+00 2.5854529271649862e+00 1.5453824385188126e+01 5 5 0
5608 444 2 -8.2999999999999996e-01 5.8725621277688038e+00 7.6846860838567332e+00 1.3232688183449882e+01 1 -4 0
1881 444 1 4.1499999999999998e-01 1.0719769273266124e+01 6.2070815338555496e+00 1.1693290852782459e+01 1 3 0
3649 444 2 -8.2999999999999996e-01 1.0922115971179998e+01 3.4404312435286264e+00 1.5123591339673720e+01 4 -1 0
5184 444 1 4.1499999999999998e-01 1.8067474600270694e-01 4.4357987412966713e+00 1.0076693932706371e+01 5 -2 0
429 444 1 4.1499999999999998e-01 3.8883462314421924e+00 7.4753806273137489e+00 1.1000327663134737e+01 3 0 0
5531 444 1 4.1499999999999998e-01 1.1230732857399378e+01 7.3782308665380105e+00 1.3461017070584303e+01 1 1 0
5609 444 1 4.1499999999999998e-01 5.5269928476364347e+00 6.9346676985030582e+00 1.2748656799293109e+01 1 -4 0
1880 444 1 4.1499999999999998e-01 1.0628985674341976e+01 5.2422569828727950e+00 1.0530205153331094e+01 1 3 0
1879 444 2 -8.2999999999999996e-01 1.0569733725065797e+01 6.1723338830040939e+00 1.0748560553854196e+01 1 3 0
3452 444 1 4.1499999999999998e-01 1.5988718634425965e+00 6.9137206725452698e+00 1.0340431651893985e+01 0 -1 0
5532 444 1 4.1499999999999998e-01 1.1371080009927701e+01 6.1107083426428446e+00 1.4276851119768008e+01 1 1 0
5530 444 2 -8.2999999999999996e-01 1.0973852990544268e+01 6.4562901416701930e+00 1.3477466340561714e+01 1 1 0
5610 444 1 4.1499999999999998e-01 5.3631736143526050e+00 7.7027941460956484e+00 1.4042890472025309e+01 1 -4 0
3650 444 1 4.1499999999999998e-01 1.1192185677895536e+01 3.4243178632077846e+00 1.4205422193434574e+01 4 -1 0
4990 444 2 -8.2999999999999996e-01 6.5977303869125592e-01 3.9050416905432845e+00 2.3322668790258366e+01 2 -1 0
3720 444 1 4.1499999999999998e-01 1.1070656013552476e+01 6.4616647948349932e+00 1.8815323361972563e+01 -3 2 0
4991 444 1 4.1499999999999998e-01 2.4319558503663316e-01 3.0998200395055773e+00 2.3015564242044391e+01 2 -1 0
2776 444 2 -8.2999999999999996e-01 7.8065752103011006e+00 5.5155709315324826e+00 2.2931973588412895e+01 -1 -7 0
3718 444 2 -8.2999999999999996e-01 1.0828256098380120e+01 7.1027386092326532e+00 1.9483529122857149e+01 -3 2 0
252 444 1 4.1499999999999998e-01 1.0273367477756017e+00 7.3498419683517602e+00 1.9984409549807296e+01 4 3 0
4584 444 1 4.1499999999999998e-01 1.1500978947313862e+00 4.3024139938238068e+00 2.1660322675929105e+01 0 3 0
552 444 1 4.1499999999999998e-01 7.0960912371978475e+00 5.6837211225745508e+00 1.7808027982932277e+01 4 0 0
2436 444 1 4.1499999999999998e-01 2.6647965157669801e-01 2.1289034030719218e+00 1.9176106902038502e+01 -2 -4 0
3433 444 2 -8.2999999999999996e-01 2.1494495086535803e+00 7.4170914493805347e+00 1.6692853752978735e+01 4 -4 0
4774 444 2 -8.2999999999999996e-01 9.0091452773785079e+00 5.4498675019506893e-01 1.9877727130330491e+01 2 3 0
4582 444 2 -8.2999999999999996e-01 1.2987687098905802e+00 4.3146123085473391e+00 2.0714816872153758e+01 0 3 0
5882 444 1 4.1499999999999998e-01 1.0673849484743981e+01 6.5980764631511999e+00 2.1210249637632486e+01 -1 -1 0
3963 444 1 4.1499999999999998e-01 4.9775543882523996e+00 6.6534318732511135e+00 1.9882043698797535e+01 5 -2 0
1973 444 1 4.1499999999999998e-01 3.5655484161677418e+00 6.3911756405462061e-01 2.2533961943792402e+01 -5 3 0
171 444 1 4.1499999999999998e-01 3.4345559411341458e+00 2.4388034854226981e+00 1.7574737505133118e+01 1 4 0
4671 444 1 4.1499999999999998e-01 4.1097798419244906e+00 4.6683784573094114e+00 1.8569815725405540e+01 1 4 0
2434 444 2 -8.2999999999999996e-01 7.3722276310863788e-01 1.2973617656338041e+00 1.9232431554094255e+01 -2 -4 0
623 444 1 4.1499999999999998e-01 1.0477170475421186e+01 2.0073834425546413e+00 2.2059010252424720e+01 1 3 0
5144 444 1 4.1499999999999998e-01 8.1449103918429451e+00 5.5689247649493012e+00 2.0271774263296564e+01 -3 0 0
3744 444 1 4.1499999999999998e-01 1.0687037373669888e+01 1.9237737134736295e+00 1.7728279536919718e+01 -2 -2 0
170 444 1 4.1499999999999998e-01 3.7378674519990525e+00 2.2147128687651647e+00 1.9040916623323547e+01 1 4 0
169 444 2 -8.2999999999999996e-01 3.3980351217947296e+00 1.7737934975373206e+00 1.8262240614300772e+01 1 4 0
4873 444 2 -8.2999999999999996e-01 4.0293983355052427e+00 4.2512373071518299e+00 1.6973055363146329e+01 1 -1 0
4425 444 1 4.1499999999999998e-01 7.5095163249315551e+00 2.1790757968718707e-02 2.0083968261789362e+01 0 -4 0
4875 444 1 4.1499999999999998e-01 4.8075074364172270e+00 4.7570410689011764e+00 1.6738659633113691e+01 1 -1 0
196 444 2 -8.2999999999999996e-01 5.0970730701412190e+00 2.3179238457073819e+00 2.0524967338678181e+01 3 -5 0
3742 444 2 -8.2999999999999996e-01 1.0968514664272512e+01 1.7174817211599933e+00 1.8619596763584973e+01 -2 -2 0
198 444 1 4.1499999999999998e-01 5.7752900247441481e+00 1.6600908998138526e+00 2.0371639035001778e+01 3 -5 0
622 444 2 -8.2999999999999996e-01 1.0307335337039182e+01 1.2885397842111161e+00 2.2667822041113681e+01 1 3 0
2435 444 1 4.1499999999999998e-01 1.6617681428136222e+00 1.5416530277408849e+00 1.9190362660026693e+01 -2 -4 0
5619 444 1 4.1499999999999998e-01 9.8454756393701750e+00 5.4078962891346212e+00 1.7548273946327736e+01 -2 -2 0
197 444 1 4.1499999999999998e-01 4.8158476968617796e+00 2.1668531892688070e+00 2.1427365243046740e+01 3 -5 0
1051 444 2 -8.2999999999999996e-01 5.1457212631808371e+00 3.7809878777338026e+00 2.4036907719204677e+01 -5 -1 0
1052 444 1 4.1499999999999998e-01 5.2857879220498081e+00 2.8667693132092942e+00 2.3790294920185413e+01 -5 -1 0
624 444 1 4.1499999999999998e-01 1.0643948828058889e+01 5.1150443614417007e-01 2.2221571774440687e+01 1 3 0
5145 444 1 4.1499999999999998e-01 7.5900084062429807e+00 4.3403035521247855e+00 1.9582956839115024e+01 -3 0 0
5143 444 2 -8.2999999999999996e-01 8.0110991325038565e+00 5.1816424214632715e+00 1.9406708222112680e+01 -3 0 0
5646 444 1 4.1499999999999998e-01 4.8131972067475317e+00 5.3816213942258795e+00 2.3391698849507858e+01 0 1 0
5644 444 2 -8.2999999999999996e-01 4.5507443333140873e+00 6.1994687442551824e+00 2.2969232823991806e+01 0 1 0
5645 444 1 4.1499999999999998e-01 3.7772657970396781e+00 6.4836997827003344e+00 2.3456240542837723e+01 0 1 0
4670 444 1 4.1499999999999998e-01 4.4782356425346670e+00 4.0624345368693300e+00 1.9907338638557707e+01 1 4 0
4669 444 2 -8.2999999999999996e-01 4.0929846751150585e+00 4.8437550221342116e+00 1.9510662609171359e+01 1 4 0
4583 444 1 4.1499999999999998e-01 2.2456896220448241e+00 4.4193892345647177e+00 2.0622107249247282e+01 0 3 0
3343 444 2 -8.2999999999999996e-01 1.1052630559831918e+01 3.2022565543617252e+00 2.0951276669488657e+01 2 4 0
250 444 2 -8.2999999999999996e-01 1.5166482797702709e+00 6.9816905573838879e+00 1.9248698480715181e+01 4 3 0
3345 444 1 4.1499999999999998e-01 1.0526058572972213e+01 3.9848127836038612e+00 2.0788305311427749e+01 2 4 0
716 444 1 4.1499999999999998e-01 6.0800646842726351e+00 4.0106117855784956e-01 1.6308071950885928e+01 3 0 0
550 444 2 -8.2999999999999996e-01 6.2941588537226734e+00 5.8776348636993019e+00 1.7322709303474152e+01 4 0 0
1972 444 2 -8.2999999999999996e-01 4.2621652180821883e+00 1.2608228898816178e+00 2.2744769417174616e+01 -5 3 0
3344 444 1 4.1499999999999998e-01 1.0938336702768444e+01 2.6681082279954489e+00 2.0165239108931132e+01 2 4 0
5618 444 1 4.1499999999999998e-01 1.0137910367118847e+01 4.6635055687875635e+00 1.6262870834226337e+01 -2 -2 0
2778 444 1 4.1499999999999998e-01 8.7064652076969420e+00 5.8301010238744038e+00 2.3018582428971005e+01 -1 -7 0
4874 444 1 4.1499999999999998e-01 3.3214712658264602e+00 4.6525724766513452e+00 1.6469069216423446e+01 1 -1 0
251 444 1 4.1499999999999998e-01 1.6211491864191347e+00 6.0560986690074090e+00 1.9469132392092426e+01 4 3 0
551 444 1 4.1499999999999998e-01 6.3067877063694917e+00 6.8278760844820221e+00 1.7208190685228033e+01 4 0 0
1506 444 1 4.1499999999999998e-01 7.9242985026674679e+00 4.5274713791018710e+00 2.4209456302399627e+01 2 0 0
5617 444 2 -8.2999999999999996e-01 1.0031345147075127e+01 5.5454081090778109e+00 1.6619417153372407e+01 -2 -2 0
3961 444 2 -8.2999999999999996e-01 5.2922745306185561e+00 7.1200659881120174e+00 2.0656276030475823e+01 5 -2 0
1974 444 1 4.1499999999999998e-01 4.6637592230134581e+00 9.1069091005367953e-01 2.3539982115199916e+01 -5 3 0
5900 444 1 4.1499999999999998e-01 3.5693725533776881e+00 3.6216478553586557e-04 1.7857245572262787e+01 2 -1 0
5881 444 2 -8.2999999999999996e-01 1.0781118117517071e+01 6.3240561265960071e+00 2.2121095015351777e+01 -1 -1 0
4775 444 1 4.1499999999999998e-01 9.7351735362266734e+00 9.3941635587088146e-01 1.9394465589703142e+01 2 3 0
3434 444 1 4.1499999999999998e-01 2.1097160699353679e+00 7.1539725991417402e+00 1.7612322483475747e+01 4 -4 0
3962 444 1 4.1499999999999998e-01 4.9774918314974377e+00 6.5990284026485435e+00 2.1394966575522002e+01 5 -2 0
2777 444 1 4.1499999999999998e-01 7.3507349106587414e+00 6.2173666365525495e+00 2.2467296646638619e+01 -1 -7 0
3536 444 1 4.1499999999999998e-01 1.8183444665642984e-01 5.3748048219265078e-02 2.4010745562992955e+01 0 0 0
4776 444 1 4.1499999999999998e-01 9.4033621272976990e+00 2.3665286498923629e-01 2.0693665584910821e+01 2 3 0
4332 444 1 4.1499999999999998e-01 1.1384096309863263e+01 3.1062383387242698e+00 2.6343811565125467e+01 6 0 0
235 444 2 -8.2999999999999996e-01 6.3326839812003044e-02 6.9528162149583990e+00 3.0045593380877222e+01 0 -3 0
5965 444 2 -8.2999999999999996e-01 1.0343593571567204e+01 7.5556243615228276e+00 2.9985826755947677e+01 3 -3 0
5298 444 1 4.1499999999999998e-01 5.8371944078938824e+00 7.7278923621975659e+00 2.6764021540293207e+01 -2 0 0
1048 444 2 -8.2999999999999996e-01 2.5447321489556622e+00 4.3452459066349203e+00 2.5149888600685429e+01 1 5 0
3537 444 1 4.1499999999999998e-01 5.0761820071682207e-01 6.4236337435001112e-01 2.5366950804623929e+01 0 0 0
1050 444 1 4.1499999999999998e-01 2.5731599422610016e+00 5.2616430831146692e+00 2.4874859898225065e+01 1 5 0
1053 444 1 4.1499999999999998e-01 4.3699161186493951e+00 3.7622377611606832e+00 2.4597271381548683e+01 -5 -1 0
2442 444 1 4.1499999999999998e-01 3.7163439646266636e+00 4.9686322799119811e+00 3.2480519048866036e+01 3 -4 0
529 444 2 -8.2999999999999996e-01 8.7820386872848690e+00 5.0227840960262951e+00 3.1953194221469893e+01 3 7 0
1049 444 1 4.1499999999999998e-01 2.0386537226683825e+00 3.9052789551127964e+00 2.4466846346979004e+01 1 5 0
4312 444 2 -8.2999999999999996e-01 2.8894116367216935e+00 7.1231430574295196e+00 2.4828152847767985e+01 0 9 0
1505 444 1 4.1499999999999998e-01 6.8292493181923843e+00 3.7149093777427931e+00 2.4867108061621611e+01 2 0 0
3264 444 1 4.1499999999999998e-01 5.8080699061899637e+00 5.4873767672014511e+00 3.1783847846350884e+01 6 0 0
4567 444 2 -8.2999999999999996e-01 5.1580016861011542e+00 3.5814725035109363e-01 2.5159401209678901e+01 0 0 0
3184 444 2 -8.2999999999999996e-01 3.9956410155018118e+00 2.2655316619911807e+00 2.9583793083052701e+01 2 2 0
5073 444 1 4.1499999999999998e-01 2.9225422623152548e+00 6.3609148427712041e+00 3.0925582970821370e+01 -2 0 0
2201 444 1 4.1499999999999998e-01 4.4651421403700464e+00 4.5608071302268716e-01 2.9757945674259634e+01 1 1 0
3186 444 1 4.1499999999999998e-01 4.2274292264420357e+00 3.0249194823162031e+00 2.9049156357297374e+01 2 2 0
2055 444 1 4.1499999999999998e-01 9.5710362143103489e-01 2.4582516788707784e+00 2.6639738187125669e+01 -1 -2 0
4569 444 1 4.1499999999999998e-01 5.4975904509793025e+00 9.7633212935657954e-01 2.5806516984500934e+01 0 0 0
4274 444 1 4.1499999999999998e-01 9.3238761917786768e+00 2.9056562757051698e+00 2.5453794108990461e+01 4 2 0
4275 444 1 4.1499999999999998e-01 1.0161956792208088e+01 2.0606156349015503e+00 2.4518153751196966e+01 4 2 0
3050 444 1 4.1499999999999998e-01 8.2841612573056889e+00 1.9673845347093635e+00 3.2205076338739758e+01 4 2 0
3590 444 1 4.1499999999999998e-01 3.4221442590066653e+00 7.2130135461829381e+00 2.7389702905151239e+01 1 0 0
2912 444 1 4.1499999999999998e-01 3.9556657395130985e+00 4.9856416141108406e+00 2.7358808620895058e+01 3 -2 0
3185 444 1 4.1499999999999998e-01 3.1579288345048298e+00 2.4999268967953125e+00 2.9983205363147878e+01 2 2 0
2904 444 1 4.1499999999999998e-01 9.5543053602576915e+00 7.3249870302889830e+00 2.6541995428291930e+01 1 3 0
1257 444 1 4.1499999999999998e-01 9.2123542917782775e+00 6.0676149793994794e-01 2.7770719284285970e+01 0 2 0
1299 444 1 4.1499999999999998e-01 8.5861796214680131e-01 3.4071497182754911e+00 3.0099272192603998e+01 1 1 0
2054 444 1 4.1499999999999998e-01 2.4435977359888255e+00 2.2615221868752955e+00 2.6431104297788078e+01 -1 -2 0
1731 444 1 4.1499999999999998e-01 1.0994266401522507e+01 4.0819293773395477e+00 2.9701008626372740e+01 -2 -3 0
1730 444 1 4.1499999999999998e-01 9.7541071000452231e+00 4.8639418789487818e+00 3.0078311815133592e+01 -2 -3 0
2913 444 1 4.1499999999999998e-01 5.4050987800363384e+00 5.3958165120589996e+00 2.7509791824122740e+01 3 -2 0
3589 444 2 -8.2999999999999996e-01 3.0278192482973889e+00 6.5260664590968576e+00 2.7927145123438226e+01 1 0 0
1504 444 2 -8.2999999999999996e-01 7.7124580959994473e+00 4.0535708954091145e+00 2.5013678890901517e+01 2 0 0
2911 444 2 -8.2999999999999996e-01 4.8424166551362458e+00 4.6283855913724397e+00 2.7406489326192048e+01 3 -2 0
1297 444 2 -8.2999999999999996e-01 1.6362606082843474e+00 3.1983446878600401e+00 3.0616868156015034e+01 1 1 0
3511 444 2 -8.2999999999999996e-01 9.0225707002093003e+00 2.3886112897917990e+00 2.7882877669388094e+01 2 -1 0
3512 444 1 4.1499999999999998e-01 9.6385091524733166e+00 2.3090070549817368e+00 2.7154513054459603e+01 2 -1 0
2902 444 2 -8.2999999999999996e-01 9.7076491165333234e+00 6.9834324564898633e+00 2.7422937383826163e+01 1 3 0
3513 444 1 4.1499999999999998e-01 9.2681285679513810e+00 3.2058099309078587e+00 2.8316605209323242e+01 2 -1 0
3336 444 1 4.1499999999999998e-01 5.5247765576059278e+00 2.8184302008760307e+00 2.6904420788210210e+01 5 3 0
4311 444 1 4.1499999999999998e-01 7.3599063166583418e+00 5.4957264241083310e+00 2.6490460230800828e+01 -1 1 0
3335 444 1 4.1499999999999998e-01 6.9746436466003798e+00 2.4628912547548012e+00 2.7156162381314690e+01 5 3 0
456 444 1 4.1499999999999998e-01 3.6513599302484261e+00 6.9743867134634909e+00 2.9422008963775962e+01 4 -6 0
4273 444 2 -8.2999999999999996e-01 1.0189426288721736e+01 2.5067910400126530e+00 2.5364561351897692e+01 4 2 0
608 444 1 4.1499999999999998e-01 7.2154249918962670e+00 7.7424925934581355e+00 3.1428418155416487e+01 -3 -4 0
454 444 2 -8.2999999999999996e-01 4.0518319364583162e+00 7.3609239661763981e+00 3.0200753494452449e+01 4 -6 0
3334 444 2 -8.2999999999999996e-01 6.1557378484485827e+00 2.1043220142799055e+00 2.6814030716825290e+01 5 3 0
1729 444 2 -8.2999999999999996e-01 1.0142914073219703e+01 4.3601224107851433e+00 2.9363309915969904e+01 -2 -3 0
3262 444 2 -8.2999999999999996e-01 6.1397293423587200e+00 6.3623457586157652e+00 3.1582196571368321e+01 6 0 0
3263 444 1 4.1499999999999998e-01 5.5187930777810221e+00 6.7131106291012737e+00 3.0943734270706816e+01 6 0 0
531 444 1 4.1499999999999998e-01 8.0435991946913834e+00 5.5726086718607180e+00 3.2215171561479963e+01 3 7 0
4309 444 2 -8.2999999999999996e-01 7.0433790580210518e+00 6.1458621665248048e+00 2.7117649482709293e+01 -1 1 0
5072 444 1 4.1499999999999998e-01 1.4387035418139165e+00 6.3415093758610759e+00 3.1225153017873470e+01 -2 0 0
2903 444 1 4.1499999999999998e-01 1.0286876306996151e+01 6.2327421071753770e+00 2.7291819683819615e+01 1 3 0
2053 444 2 -8.2999999999999996e-01 1.6043398022663615e+00 1.8046647694712445e+00 2.6374895249833763e+01 -1 -2 0
5966 444 1 4.1499999999999998e-01 9.9809421621308445e+00 7.2655246098938324e+00 2.9148833130169283e+01 3 -3 0
3591 444 1 4.1499999999999998e-01 2.0901638334003398e+00 6.5871217692836197e+00 2.7744644412518237e+01 1 0 0
4310 444 1 4.1499999999999998e-01 7.8383763175268175e+00 6.5177610041527432e+00 2.7499621877918646e+01 -1 1 0
5071 444 2 -8.2999999999999996e-01 2.2785566166942028e+00 6.0053966214725962e+00 3.1538055477100492e+01 -2 0 0
530 444 1 4.1499999999999998e-01 8.6206135745406325e+00 4.1831452624260628e+00 3.2383521995988545e+01 3 7 0
1298 444 1 4.1499999999999998e-01 1.8156001367844841e+00 3.9968246421139750e+00 3.1113355249204854e+01 1 1 0
5967 444 1 4.1499999999999998e-01 9.5794259651385598e+00 7.8092327383435913e+00 3.0503477735238391e+01 3 -3 0
4313 444 1 4.1499999999999998e-01 3.6625705572324980e+00 7.5409388130323922e+00 2.5207499704977479e+01 0 9 0
237 444 1 4.1499999999999998e-01 4.7917349516907892e-01 7.8090316246085845e+00 2.9944599015468079e+01 0 -3 0
4568 444 1 4.1499999999999998e-01 5.9304770633625461e+00 7.3277931002074581e-02 2.4671176655611688e+01 0 0 0
1328 444 1 4.1499999999999998e-01 1.0906246205287255e+01 1.1406173490499050e+00 3.4445575973530055e+01 6 4 0
2511 444 1 4.1499999999999998e-01 6.2940659086975401e+00 7.4740301931468096e+00 3.4592406493928365e+01 -2 -2 0
2440 444 2 -8.2999999999999996e-01 4.5807691283284449e+00 4.5784195328603898e+00 3.2609884684729032e+01 3 -4 0
405 444 1 4.1499999999999998e-01 1.0944159311105059e+01 3.9968462917809351e+00 3.2805097658279045e+01 0 -1 0
404 444 1 4.1499999999999998e-01 1.0801897600590395e+01 4.7281496361803326e+00 3.4122994605117576e+01 0 -1 0
2441 444 1 4.1499999999999998e-01 4.4372875574008654e+00 3.6376742468986083e+00 3.2506717923552841e+01 3 -4 0
113 444 1 4.1499999999999998e-01 5.5899602935083816e+00 5.2325752626359172e+00 3.4207427325426714e+01 -3 2 0
2860 444 2 -8.2999999999999996e-01 6.7590904978953024e+00 3.0526691037334697e-01 3.4196700844612216e+01 1 4 0
3051 444 1 4.1499999999999998e-01 7.5473584844268675e+00 2.0413268241498135e+00 3.3525511675027651e+01 4 2 0
1487 444 1 4.1499999999999998e-01 2.1250898844589625e+00 6.6663969664203773e+00 3.4634523218716268e+01 -1 2 0
114 444 1 4.1499999999999998e-01 6.7994185761705204e+00 5.2915642101407965e+00 3.5116067147217301e+01 -3 2 0
1488 444 1 4.1499999999999998e-01 2.2045759438691133e+00 7.0333647910654484e+00 3.3167924249536050e+01 -1 2 0