LAMMPS data file via write_data, version 11 Aug 2017, timestep = 500000

7160 atoms
4 atom types
4000 bonds
1 bond types
2000 angles
1 angle types

0.0000000000000000e+00 4.5679949999999998e+01 xlo xhi
0.0000000000000000e+00 4.6885919999999999e+01 ylo yhi
0.0000000000000000e+00 6.5000000000000000e+01 zlo zhi

Masses

1 1.0079
2 15.9994
3 22.9898
4 107.868

Bond Coeffs # harmonic

1 450 0.9572

Angle Coeffs # harmonic

1 500 104.52

Atoms # full

6009 444 4 0.0000000000000000e+00 1.6907200000000000e+00 0.0000000000000000e+00 0.0000000000000000e+00 0 0 0
6010 444 4 0.0000000000000000e+00 4.2285000000000004e+00 1.4651900000000000e+00 0.0000000000000000e+00 0 0 0
6011 444 4 -2.7779999999999999e-02 1.6907700000000001e+00 0.0000000000000000e+00 7.1781499999999996e+00 0 0 0
6012 444 4 -2.7779999999999999e-02 4.2285500000000003e+00 1.4651900000000000e+00 7.1781499999999996e+00 0 0 0
6013 444 4 0.0000000000000000e+00 2.5366499999999998e+00 1.4651900000000000e+00 2.3926400000000001e+00 0 0 0
6014 444 4 0.0000000000000000e+00 5.0744199999999999e+00 0.0000000000000000e+00 2.3926400000000001e+00 0 0 0
6015 444 4 0.0000000000000000e+00 8.4509000000000001e-01 1.4651900000000000e+00 4.7824200000000001e+00 0 0 0
6016 444 4 0.0000000000000000e+00 3.3828600000000000e+00 0.0000000000000000e+00 4.7824499999999999e+00 0 0 0
6017 444 4 0.0000000000000000e+00 1.6907200000000000e+00 2.9303699999999999e+00 0.0000000000000000e+00 0 0 0
6018 444 4 0.0000000000000000e+00 4.2285000000000004e+00 4.3955599999999997e+00 0.0000000000000000e+00 0 0 0
6019 444 4 -2.7779999999999999e-02 1.6907700000000001e+00 2.9303699999999999e+00 7.1781899999999998e+00 0 0 0
6020 444 4 -2.7779999999999999e-02 4.2285500000000003e+00 4.3955599999999997e+00 7.1781600000000001e+00 0 0 0
6021 444 4 0.0000000000000000e+00 2.5366499999999998e+00 4.3955599999999997e+00 2.3926400000000001e+00 0 0 0
6022 444 4 0.0000000000000000e+00 5.0744199999999999e+00 2.9303699999999999e+00 2.3926400000000001e+00 0 0 0
6023 444 4 0.0000000000000000e+00 8.4509000000000001e-01 4.3955599999999997e+00 4.7824499999999999e+00 0 0 0
6024 444 4 0.0000000000000000e+00 3.3828700000000000e+00 2.9303699999999999e+00 4.7824400000000002e+00 0 0 0
6025 444 4 0.0000000000000000e+00 1.6907200000000000e+00 5.8607399999999998e+00 0.0000000000000000e+00 0 0 0
6026 444 4 0.0000000000000000e+00 4.2285000000000004e+00 7.3259299999999996e+00 0.0000000000000000e+00 0 0 0
6027 444 4 -2.7779999999999999e-02 1.6907700000000001e+00 5.8607399999999998e+00 7.1781499999999996e+00 0 0 0
6028 444 4 -2.7779999999999999e-02 4.2285500000000003e+00 7.3259299999999996e+00 7.1781499999999996e+00 0 0 0
6029 444 4 0.0000000000000000e+00 2.5366499999999998e+00 7.3259299999999996e+00 2.3926400000000001e+00 0 0 0
6030 444 4 0.0000000000000000e+00 5.0744199999999999e+00 5.8607399999999998e+00 2.3926400000000001e+00 0 0 0
6031 444 4 0.0000000000000000e+00 8.4509000000000001e-01 7.3259299999999996e+00 4.7824200000000001e+00 0 0 0
6032 444 4 0.0000000000000000e+00 3.3828600000000000e+00 5.8607399999999998e+00 4.7824499999999999e+00 0 0 0
6137 444 4 0.0000000000000000e+00 6.7662699999999996e+00 0.0000000000000000e+00 0.0000000000000000e+00 0 0 0
6139 444 4 -2.7779999999999999e-02 6.7663200000000003e+00 0.0000000000000000e+00 7.1781499999999996e+00 0 0 0
6141 444 4 0.0000000000000000e+00 7.6121999999999996e+00 1.4651900000000000e+00 2.3926400000000001e+00 0 0 0
6143 444 4 0.0000000000000000e+00 5.9206399999999997e+00 1.4651900000000000e+00 4.7824200000000001e+00 0 0 0
6145 444 4 0.0000000000000000e+00 6.7662699999999996e+00 2.9303699999999999e+00 0.0000000000000000e+00 0 0 0
6147 444 4 -2.7779999999999999e-02 6.7663200000000003e+00 2.9303699999999999e+00 7.1781899999999998e+00 0 0 0
6149 444 4 0.0000000000000000e+00 7.6121999999999996e+00 4.3955599999999997e+00 2.3926400000000001e+00 0 0 0
6151 444 4 0.0000000000000000e+00 5.9206399999999997e+00 4.3955599999999997e+00 4.7824499999999999e+00 0 0 0
6153 444 4 0.0000000000000000e+00 6.7662699999999996e+00 5.8607399999999998e+00 0.0000000000000000e+00 0 0 0
6155 444 4 -2.7779999999999999e-02 6.7663200000000003e+00 5.8607399999999998e+00 7.1781499999999996e+00 0 0 0
6157 444 4 0.0000000000000000e+00 7.6121999999999996e+00 7.3259299999999996e+00 2.3926400000000001e+00 0 0 0
6159 444 4 0.0000000000000000e+00 5.9206399999999997e+00 7.3259299999999996e+00 4.7824200000000001e+00 0 0 0
6138 444 4 0.0000000000000000e+00 9.3040500000000002e+00 1.4651900000000000e+00 0.0000000000000000e+00 0 0 0
6140 444 4 -2.7779999999999999e-02 9.3041000000000000e+00 1.4651900000000000e+00 7.1781499999999996e+00 0 0 0
6142 444 4 0.0000000000000000e+00 1.0149970000000000e+01 0.0000000000000000e+00 2.3926400000000001e+00 0 0 0
6144 444 4 0.0000000000000000e+00 8.4584100000000007e+00 0.0000000000000000e+00 4.7824499999999999e+00 0 0 0
6146 444 4 0.0000000000000000e+00 9.3040500000000002e+00 4.3955599999999997e+00 0.0000000000000000e+00 0 0 0
6148 444 4 -2.7779999999999999e-02 9.3041000000000000e+00 4.3955599999999997e+00 7.1781600000000001e+00 0 0 0
6150 444 4 0.0000000000000000e+00 1.0149970000000000e+01 2.9303699999999999e+00 2.3926400000000001e+00 0 0 0
6152 444 4 0.0000000000000000e+00 8.4584200000000003e+00 2.9303699999999999e+00 4.7824400000000002e+00 0 0 0
6154 444 4 0.0000000000000000e+00 9.3040500000000002e+00 7.3259299999999996e+00 0.0000000000000000e+00 0 0 0
6156 444 4 -2.7779999999999999e-02 9.3041000000000000e+00 7.3259299999999996e+00 7.1781499999999996e+00 0 0 0
6158 444 4 0.0000000000000000e+00 1.0149970000000000e+01 5.8607399999999998e+00 2.3926400000000001e+00 0 0 0
6160 444 4 0.0000000000000000e+00 8.4584100000000007e+00 5.8607399999999998e+00 4.7824499999999999e+00 0 0 0
6271 444 4 0.0000000000000000e+00 1.0996190000000000e+01 1.4651900000000000e+00 4.7824200000000001e+00 0 0 0
6279 444 4 0.0000000000000000e+00 1.0996190000000000e+01 4.3955599999999997e+00 4.7824499999999999e+00 0 0 0
6287 444 4 0.0000000000000000e+00 1.0996190000000000e+01 7.3259299999999996e+00 4.7824200000000001e+00 0 0 0
1207 444 2 -8.2999999999999996e-01 7.2479410834516118e+00 4.6990589795798563e+00 1.0487711867848493e+01 5 0 0
1208 444 1 4.1499999999999998e-01 6.8450402967024111e+00 4.7229450896727911e+00 1.1355659388379523e+01 5 0 0
5311 444 2 -8.2999999999999996e-01 8.8680408191557234e+00 1.7105456139411119e+00 9.8428863491416347e+00 -6 3 0
1209 444 1 4.1499999999999998e-01 6.5244181303741442e+00 4.5026392784238958e+00 9.8925933157785337e+00 5 0 0
5313 444 1 4.1499999999999998e-01 8.6194622635592371e+00 2.2905620168264829e+00 9.1231490963947959e+00 -6 3 0
5372 444 1 4.1499999999999998e-01 3.2378952976042208e+00 4.8925148951501392e+00 1.2543528844020027e+01 4 2 0
5886 444 1 4.1499999999999998e-01 6.0965515477522843e+00 6.2222453582965320e-01 1.1011315391075998e+01 -5 0 0
5885 444 1 4.1499999999999998e-01 5.9277277533090018e+00 2.0361813293921136e+00 1.0497389171790230e+01 -5 0 0
3612 444 1 4.1499999999999998e-01 8.7614120499472019e+00 4.8439548040389244e+00 1.0947279671598240e+01 0 2 0
3610 444 2 -8.2999999999999996e-01 9.6995068869511041e+00 4.7798484138671906e+00 1.1126445416702634e+01 0 2 0
3611 444 1 4.1499999999999998e-01 9.7613280519425611e+00 4.7706420246724894e+00 1.2081602614066009e+01 0 2 0
5884 444 2 -8.2999999999999996e-01 6.5779799659795586e+00 1.4360296473257981e+00 1.0862384991282479e+01 -5 0 0
4421 444 1 4.1499999999999998e-01 4.3163663900217291e+00 4.0465778260270255e+00 1.0185888652764461e+01 0 0 0
3522 444 1 4.1499999999999998e-01 2.8189628389776309e+00 3.6036587531865591e+00 1.5812740815104597e+01 2 0 0
3520 444 2 -8.2999999999999996e-01 2.0421821400313909e+00 3.5998300247569559e+00 1.5253429360011726e+01 2 0 0
4420 444 2 -8.2999999999999996e-01 4.7985369604109520e+00 3.2323432974810551e+00 1.0041783455368082e+01 0 0 0
3521 444 1 4.1499999999999998e-01 2.3723591985511563e+00 3.8210934186454724e+00 1.4382648598199349e+01 2 0 0
1938 444 1 4.1499999999999998e-01 5.2257744861729165e+00 5.5738903245438758e+00 1.2788459468661912e+01 1 1 0
5312 444 1 4.1499999999999998e-01 8.0510772187420692e+00 1.5506708408126932e+00 1.0315371766128454e+01 -6 3 0
5294 444 1 4.1499999999999998e-01 3.5774454885166040e+00 6.0506854997224857e-01 1.2936898488951641e+01 -3 2 0
5295 444 1 4.1499999999999998e-01 4.0433599282433921e+00 1.8589292144239815e+00 1.2227918659191971e+01 -3 2 0
5293 444 2 -8.2999999999999996e-01 4.3386134160325964e+00 1.1754381959204498e+00 1.2829498662595139e+01 -3 2 0
4931 444 1 4.1499999999999998e-01 2.1953416627784432e+00 4.6854658855475426e+00 9.9980286081802934e+00 4 -2 0
5124 444 1 4.1499999999999998e-01 1.0629234730709644e+01 1.8881975884294262e+00 1.0870469748489597e+01 -4 -3 0
5371 444 2 -8.2999999999999996e-01 2.5541442583796994e+00 4.2378160866361263e+00 1.2685257553767245e+01 4 2 0
1858 444 2 -8.2999999999999996e-01 7.7144710026077297e+00 2.6737001639975291e+00 1.4275154281308289e+01 -3 0 0
1859 444 1 4.1499999999999998e-01 8.4931119968636111e+00 3.1832481572625255e+00 1.4050853346329610e+01 -3 0 0
4422 444 1 4.1499999999999998e-01 4.1816750058416172e+00 2.6672568405342756e+00 9.5766044228776952e+00 0 0 0
1860 444 1 4.1499999999999998e-01 7.9121158506411478e+00 2.2986276601608706e+00 1.5133343680524463e+01 -3 0 0
6006 444 3 1.0000000000000000e+00 6.6883368872277771e+00 6.7388618528135968e-01 1.3323319766114416e+01 1 1 0
2478 444 1 4.1499999999999998e-01 6.1132612602812153e-01 1.2358538322798416e+00 1.2608332068869030e+01 1 0 0
4101 444 1 4.1499999999999998e-01 5.4335246348579567e+00 6.2335958797368036e+00 1.6056551313736094e+01 2 6 0
1057 444 2 -8.2999999999999996e-01 6.9287714976376291e+00 4.8980538614192417e+00 1.3223887995893200e+01 -1 -1 0
1059 444 1 4.1499999999999998e-01 6.7380868868145107e+00 3.9952612796909914e+00 1.3478520615501107e+01 -1 -1 0
5373 444 1 4.1499999999999998e-01 1.8581039697605715e+00 4.4817953149481804e+00 1.2075147217083620e+01 4 2 0
1058 444 1 4.1499999999999998e-01 7.6714722514619513e+00 5.1503663917157443e+00 1.3772492298232629e+01 -1 -1 0
1612 444 2 -8.2999999999999996e-01 2.6909277700275607e+00 1.4525277477737077e+00 1.0128639316189197e+01 4 -1 0
1305 444 1 4.1499999999999998e-01 7.9795530836659090e-01 6.2838145616788292e+00 1.4196403514729067e+01 -2 6 0
5395 444 2 -8.2999999999999996e-01 8.8916804488099128e+00 7.5304841256031150e+00 1.0554297316883893e+01 -4 -4 0
5557 444 2 -8.2999999999999996e-01 3.7426555768219298e+00 5.7529425396015501e+00 9.8147253567519872e+00 1 1 0
1936 444 2 -8.2999999999999996e-01 4.5621317727229025e+00 5.9662406222339603e+00 1.2221122216359769e+01 1 1 0
5558 444 1 4.1499999999999998e-01 4.0877184072123853e+00 5.8657355335352896e+00 1.0700412253600076e+01 1 1 0
5559 444 1 4.1499999999999998e-01 3.7669802899548168e+00 6.6308656945967304e+00 9.4340797092020541e+00 1 1 0
5905 444 2 -8.2999999999999996e-01 9.2145996217991648e+00 5.7389077456397715e+00 1.5022621122686779e+01 -1 6 0
1937 444 1 4.1499999999999998e-01 4.8388132732480758e+00 6.8772698474835572e+00 1.2122608003725551e+01 1 1 0
5122 444 2 -8.2999999999999996e-01 1.1198719013478307e+01 1.5489294573928625e+00 1.1560988873549842e+01 -4 -3 0
5397 444 1 4.1499999999999998e-01 8.7925898673091663e+00 6.5876267583332249e+00 1.0422262510391846e+01 -4 -4 0
4988 444 1 4.1499999999999998e-01 1.1326935209375886e+01 2.2182872152921869e-02 1.1967979409742407e+01 1 2 0
1303 444 2 -8.2999999999999996e-01 9.1955782794612373e-01 6.7108553439664949e+00 1.5044389943168351e+01 -2 6 0
1613 444 1 4.1499999999999998e-01 1.8890575749355196e+00 1.8176386176660395e+00 9.7545662129488218e+00 4 -1 0
3975 444 1 4.1499999999999998e-01 5.8100902738128557e-01 2.9703348429437222e+00 1.4548263532484361e+01 1 1 0
5906 444 1 4.1499999999999998e-01 9.7381194862253260e+00 4.9755703697883211e+00 1.5266495913933909e+01 -1 6 0
3126 444 1 4.1499999999999998e-01 9.5265081796557336e+00 1.4875001264394799e-01 9.5793510830477331e+00 -1 1 0
222 444 1 4.1499999999999998e-01 4.7011895712927604e-01 2.8180269108694809e+00 1.0328951448347555e+01 0 0 0
1909 444 2 -8.2999999999999996e-01 1.0947819501460469e+01 3.7428103958604586e+00 1.6215604047714159e+01 5 2 0
4010 444 1 4.1499999999999998e-01 1.0111138527221120e+01 7.4428011630681485e+00 1.3938077542757943e+01 0 2 0
4932 444 1 4.1499999999999998e-01 7.4274968800314378e-01 5.1118778095940787e+00 1.0004727530375526e+01 4 -2 0
5907 444 1 4.1499999999999998e-01 9.0497274521007700e+00 6.1911064862024814e+00 1.5850005820590850e+01 -1 6 0
1164 444 1 4.1499999999999998e-01 8.3693384350453925e-03 7.7118455412261984e+00 9.8343714078463282e+00 -1 1 0
4930 444 2 -8.2999999999999996e-01 1.3377849641630812e+00 4.4460572839525048e+00 1.0349471417643910e+01 4 -2 0
1163 444 1 4.1499999999999998e-01 1.2991499050696453e+00 6.9218979760971004e+00 9.7923741005180371e+00 -1 1 0
4018 444 2 -8.2999999999999996e-01 1.1236039860592333e+01 3.5129303465487949e+00 1.3490863284458264e+01 1 -1 0
3981 444 1 4.1499999999999998e-01 1.1265217948434149e+01 4.8049247410908267e+00 1.0673021184772029e+01 -2 -1 0
2476 444 2 -8.2999999999999996e-01 1.0903352472185701e+00 4.1505688068398738e-01 1.2722680832470591e+01 1 0 0
4019 444 1 4.1499999999999998e-01 1.0949690879724333e+01 3.3787031251214956e+00 1.4394311834108297e+01 1 -1 0
1614 444 1 4.1499999999999998e-01 2.4014652821864080e+00 6.7244421439003366e-01 1.0601834547614747e+01 4 -1 0
2719 444 2 -8.2999999999999996e-01 5.3445547297612679e+00 7.6042744788703516e+00 1.4930266871840237e+01 4 2 0
1162 444 2 -8.2999999999999996e-01 3.4855210595891650e-01 6.8219955442363531e+00 9.7412287832138986e+00 -1 1 0
3769 444 2 -8.2999999999999996e-01 6.8299429274912518e+00 1.2864131673484441e-01 1.5706210392524822e+01 1 6 0
5140 444 2 -8.2999999999999996e-01 8.7986968375969230e+00 1.2956981312795038e-01 1.2391348092403828e+01 6 -2 0
1304 444 1 4.1499999999999998e-01 6.2915116805414006e-02 6.6525854877319599e+00 1.5467473709455678e+01 -2 6 0
5123 444 1 4.1499999999999998e-01 1.1161775344945072e+01 2.2122955786794294e+00 1.2250055273498067e+01 -4 -3 0
194 444 1 4.1499999999999998e-01 1.9691729372995845e+00 8.5886673423643409e-02 1.4218825953978037e+01 0 -1 0
179 444 1 4.1499999999999998e-01 4.1772709896764937e+00 3.0417220873198581e-02 9.6316176974854066e+00 5 0 0
5142 444 1 4.1499999999999998e-01 8.9653297104265750e+00 2.3959955298302305e-02 1.1454698771034359e+01 6 -2 0
5107 444 2 -8.2999999999999996e-01 4.3126515971972728e+00 2.8298398584974120e+00 1.7014467188529856e+01 0 1 0
5108 444 1 4.1499999999999998e-01 5.0964253870349898e+00 3.3421059312501482e+00 1.6815685301508797e+01 0 1 0
4100 444 1 4.1499999999999998e-01 4.1153742975169241e+00 5.6630890518165868e+00 1.6534983170949026e+01 2 6 0
4099 444 2 -8.2999999999999996e-01 5.0625956336961169e+00 5.5563277851157471e+00 1.6622193968769981e+01 2 6 0
3651 444 1 4.1499999999999998e-01 7.2337756433263305e+00 5.9911504651277818e+00 2.3310626372650834e+01 -3 -1 0
1865 444 1 4.1499999999999998e-01 1.9225438543080731e+00 6.2326121656854738e+00 1.6616573539039944e+01 1 1 0
919 444 2 -8.2999999999999996e-01 8.4729151719696851e+00 1.9373161962765155e+00 1.6786660680373476e+01 0 2 0
921 444 1 4.1499999999999998e-01 8.0041040389338356e+00 1.1093500884183860e+00 1.6682156229383768e+01 0 2 0
1339 444 2 -8.2999999999999996e-01 4.1799290212770863e+00 5.7142403142915399e-01 2.2159012164043521e+01 -3 7 0
1866 444 1 4.1499999999999998e-01 1.2541476294417060e+00 6.4916520077015818e+00 1.7950005443157117e+01 1 1 0
200 444 1 4.1499999999999998e-01 1.5114912603827324e+00 2.5099026940659193e+00 1.6700783482555085e+01 9 2 0
5099 444 1 4.1499999999999998e-01 2.7823339306496044e+00 9.7982238942962907e-01 2.4043446939198038e+01 1 -1 0
4602 444 1 4.1499999999999998e-01 2.1647049084732398e-01 5.1174551223968328e+00 1.7954860256549882e+01 2 6 0
2827 444 2 -8.2999999999999996e-01 2.8126676163678743e-01 1.8139890233195216e-01 2.0974769401227853e+01 0 0 0
5798 444 1 4.1499999999999998e-01 2.6482913990985892e+00 1.3151341651123758e+00 1.8729595467966391e+01 2 -1 0
3835 444 2 -8.2999999999999996e-01 9.7225400030453202e-01 6.8582844830274636e+00 2.3872187579118144e+01 0 2 0
1786 444 2 -8.2999999999999996e-01 7.0245719535018960e+00 8.7471469346010833e-01 2.1825097235885487e+01 -1 1 0
543 444 1 4.1499999999999998e-01 2.6908373485453558e+00 6.8853428238272647e+00 2.1524075990990607e+01 3 1 0
1455 444 1 4.1499999999999998e-01 2.8626400125498423e+00 4.7158363197342910e+00 1.8546049563017075e+01 1 -2 0
201 444 1 4.1499999999999998e-01 9.5968160905236732e-01 2.9840999597969540e+00 1.8028389896821867e+01 9 2 0
811 444 2 -8.2999999999999996e-01 8.3841030262656400e+00 1.1580300487529156e+00 1.9279874630725679e+01 -1 -4 0
5109 444 1 4.1499999999999998e-01 4.5403019922137897e+00 1.9350787075707943e+00 1.6761859158368608e+01 0 1 0
1454 444 1 4.1499999999999998e-01 4.0613508643458900e+00 3.8210445544113893e+00 1.8312949288307312e+01 1 -2 0
102 444 1 4.1499999999999998e-01 4.3447873885578323e+00 5.2282011369816130e+00 2.1984087849269130e+01 3 -2 0
101 444 1 4.1499999999999998e-01 3.7802671155093464e+00 5.3424941253601013e+00 2.0584034569602967e+01 3 -2 0
100 444 2 -8.2999999999999996e-01 3.9931858900426827e+00 5.8622503927273506e+00 2.1359115899099741e+01 3 -2 0
813 444 1 4.1499999999999998e-01 7.6965639608579970e+00 1.1361676101989333e+00 1.9945490613357773e+01 -1 -4 0
1787 444 1 4.1499999999999998e-01 7.5648220679497440e+00 1.6341704873080451e+00 2.2043245709461029e+01 -1 1 0
1864 444 2 -8.2999999999999996e-01 1.9352903126409517e+00 5.9626026194167965e+00 1.7534813702719369e+01 1 1 0
4316 444 1 4.1499999999999998e-01 5.0516440304878012e+00 3.3464330201981136e+00 2.0219040309472124e+01 2 -3 0
2009 444 1 4.1499999999999998e-01 9.1802770575791328e+00 2.3983835703481859e+00 2.3069012561155368e+01 -1 7 0
4154 444 1 4.1499999999999998e-01 5.4472860502681382e+00 2.9713041461533427e+00 2.3834198565154875e+01 -2 1 0
1932 444 1 4.1499999999999998e-01 6.7845372116454250e+00 4.4285324223721831e+00 1.9248037205676901e+01 1 -1 0
4155 444 1 4.1499999999999998e-01 5.6283546401145292e+00 1.4948142922244054e+00 2.3552973401363872e+01 -2 1 0
4153 444 2 -8.2999999999999996e-01 5.9520142655652526e+00 2.2051087630207062e+00 2.4107012227739343e+01 -2 1 0
1930 444 2 -8.2999999999999996e-01 7.1048334369208499e+00 5.0700726528574203e+00 1.8613948289045336e+01 1 -1 0
1931 444 1 4.1499999999999998e-01 6.3545250204078529e+00 5.2397181328532474e+00 1.8044308366193022e+01 1 -1 0
1453 444 2 -8.2999999999999996e-01 3.6258748309695301e+00 4.3427309960555958e+00 1.8987067877379836e+01 1 -2 0
3649 444 2 -8.2999999999999996e-01 6.7170340333291616e+00 5.4843641583022400e+00 2.3937027090324953e+01 -3 -1 0
2008 444 2 -8.2999999999999996e-01 8.8202811533570955e+00 2.8216714565991152e+00 2.2289613599349163e+01 -1 7 0
2500 444 2 -8.2999999999999996e-01 1.0462137091420651e+01 5.9449381976407736e+00 2.3122545851920773e+01 -4 -3 0
4317 444 1 4.1499999999999998e-01 6.2340629267164198e+00 2.6834684258830572e+00 2.0893028009989500e+01 2 -3 0
920 444 1 4.1499999999999998e-01 8.5786137297651042e+00 2.0354758079792470e+00 1.7732929769814593e+01 0 2 0
2631 444 1 4.1499999999999998e-01 8.7405626408504915e+00 4.2355419435522057e+00 1.9232641771342653e+01 4 -6 0
4315 444 2 -8.2999999999999996e-01 6.0009774990874991e+00 3.4145486776262599e+00 2.0320817277843236e+01 2 -3 0
2502 444 1 4.1499999999999998e-01 1.0260784745225701e+01 5.6748887057610462e+00 2.4018516230847862e+01 -4 -3 0
2629 444 2 -8.2999999999999996e-01 9.4996077563480341e+00 3.7056440318513242e+00 1.9476140745428854e+01 4 -6 0
4868 444 1 4.1499999999999998e-01 1.0903639296470056e+01 3.4692894208233471e+00 2.0711554326865233e+01 2 -1 0
2630 444 1 4.1499999999999998e-01 9.1604565016318720e+00 2.8123322633791701e+00 1.9532739967736703e+01 4 -6 0
2010 444 1 4.1499999999999998e-01 9.2880605005112784e+00 3.6547433501730398e+00 2.2231254598792308e+01 -1 7 0
1002 444 1 4.1499999999999998e-01 9.4453640457514538e+00 7.3183711157659417e+00 1.8152177518537016e+01 -1 -1 0
5988 444 1 4.1499999999999998e-01 5.1941275614548106e+00 4.9485561844641053e+00 2.3992963870257149e+01 -4 1 0
5986 444 2 -8.2999999999999996e-01 4.3378441820586398e+00 4.5621428448722154e+00 2.3809400728124984e+01 -4 1 0
2829 444 1 4.1499999999999998e-01 1.0684354922678894e+00 3.6670322752323697e-01 2.0462655672384276e+01 0 0 0
199 444 2 -8.2999999999999996e-01 1.2154396933876537e+00 2.1929815557542254e+00 1.7554098742598789e+01 9 2 0
3837 444 1 4.1499999999999998e-01 1.6089625914301570e-01 6.3896064168969753e+00 2.4067818293536870e+01 0 2 0
2840 444 1 4.1499999999999998e-01 1.0950336317032310e+01 4.4836645534302146e+00 1.8931565709483827e+01 0 1 0
1788 444 1 4.1499999999999998e-01 7.4746301507438728e+00 1.3491882338577957e-01 2.2232996231773914e+01 -1 1 0
5317 444 2 -8.2999999999999996e-01 1.0176196241032777e+01 7.6821567928410310e+00 1.9708901640084218e+01 -3 -1 0
5797 444 2 -8.2999999999999996e-01 2.7373977076240070e+00 6.6966835122840684e-01 1.9430784751241227e+01 2 -1 0
1340 444 1 4.1499999999999998e-01 3.7037448431827413e+00 5.5446445972300606e-01 2.1328835447631718e+01 -3 7 0
3788 444 1 4.1499999999999998e-01 4.4767124846551551e+00 6.8697964930637445e+00 1.8264828291432519e+01 2 -1 0
3787 444 2 -8.2999999999999996e-01 4.5283261151964389e+00 7.4804433586995458e+00 1.9000136828998301e+01 2 -1 0
1341 444 1 4.1499999999999998e-01 4.9733103683026236e+00 6.2936613272016245e-02 2.1991028134049639e+01 -3 7 0
812 444 1 4.1499999999999998e-01 9.0230591215036196e+00 5.0857290247441533e-01 1.9573427615766366e+01 -1 -4 0
1000 444 2 -8.2999999999999996e-01 8.8794894922828114e+00 6.8988924980921285e+00 1.7504060528156149e+01 -1 -1 0
1001 444 1 4.1499999999999998e-01 8.2384409823158613e+00 6.4135735673629819e+00 1.8023439411638549e+01 -1 -1 0
5201 444 1 4.1499999999999998e-01 7.8344857384774462e+00 7.5842699098943935e+00 2.1452765235008883e+01 -1 -1 0
4417 444 2 -8.2999999999999996e-01 4.4823507510825034e-01 7.5795390696129470e+00 1.9335347935589944e+01 -1 0 0
5200 444 2 -8.2999999999999996e-01 8.3528971236870682e+00 7.3697433204012590e+00 2.2228303771276153e+01 -1 -1 0
3789 444 1 4.1499999999999998e-01 4.4870191506177823e+00 6.9237807641500773e+00 1.9777731110378681e+01 2 -1 0
2501 444 1 4.1499999999999998e-01 9.7024914920480345e+00 6.4599712394358013e+00 2.2850676172736133e+01 -4 -3 0
4419 444 1 4.1499999999999998e-01 9.3058482311178692e-01 7.2224174957947902e+00 2.0081025365528486e+01 -1 0 0
1910 444 1 4.1499999999999998e-01 1.1326967253410633e+01 2.9142702191920309e+00 1.6508863165933750e+01 5 2 0
542 444 1 4.1499999999999998e-01 1.4186030875492102e+00 6.9996868034251749e+00 2.2336628027891191e+01 3 1 0
541 444 2 -8.2999999999999996e-01 1.7945886543470584e+00 7.2190722748469662e+00 2.1484139447998512e+01 3 1 0
1911 444 1 4.1499999999999998e-01 1.1058549921969114e+01 4.3342281161914125e+00 1.6960047595288763e+01 5 2 0
4581 444 1 4.1499999999999998e-01 2.8513385545123943e-01 3.6851242238441864e+00 2.7441617207775042e+01 8 7 0
5098 444 2 -8.2999999999999996e-01 2.5519684685745667e+00 8.0067031156680502e-01 2.4955076742685524e+01 1 -1 0
3970 444 2 -8.2999999999999996e-01 9.4877334101238944e+00 1.6167647143401509e+00 2.4636919970406208e+01 6 2 0
3971 444 1 4.1499999999999998e-01 8.8061177763250065e+00 2.0631390635023261e+00 2.5139296621274276e+01 6 2 0
3836 444 1 4.1499999999999998e-01 1.6153454082292664e+00 6.4873211792827634e+00 2.4476382538887417e+01 0 2 0
4580 444 1 4.1499999999999998e-01 1.4981120197626867e+00 2.8263897593424501e+00 2.7153251781363405e+01 8 7 0
5045 444 1 4.1499999999999998e-01 1.0773289943176044e+01 3.3291711712671374e-01 2.9847189652406644e+01 -2 2 0
5378 444 1 4.1499999999999998e-01 1.1092264165510834e+01 3.6969804954343982e-01 2.8016639531116152e+01 1 -2 0
590 444 1 4.1499999999999998e-01 7.0105164566939174e-02 7.0774022333558477e+00 2.8664800849638159e+01 -5 3 0
5987 444 1 4.1499999999999998e-01 3.7809886859286443e+00 4.8599136270580354e+00 2.4528759126702884e+01 -4 1 0
5100 444 1 4.1499999999999998e-01 2.9975764570976446e+00 1.4851846855776920e+00 2.5454182695151385e+01 1 -1 0
4518 444 1 4.1499999999999998e-01 8.0960304345685685e+00 1.0936535788970090e+00 2.7587580439328057e+01 4 4 0
5044 444 2 -8.2999999999999996e-01 1.0029130859900876e+01 2.7171685832282311e-01 3.0446116754786175e+01 -2 2 0
4516 444 2 -8.2999999999999996e-01 7.5859025051482787e+00 1.8863697918994609e+00 2.7753721023831577e+01 4 4 0
3636 444 1 4.1499999999999998e-01 8.6025882506694362e+00 7.1936237300652968e+00 3.2224342130706603e+01 -6 -3 0
589 444 2 -8.2999999999999996e-01 6.5133199179026868e-01 6.3432189472667533e+00 2.8863250895929362e+01 -5 3 0
5947 444 2 -8.2999999999999996e-01 1.0153892922310572e+01 5.9732757071461409e+00 2.9737707228630502e+01 -1 3 0
4517 444 1 4.1499999999999998e-01 8.2048788986415850e+00 2.4876734377917948e+00 2.8167887876747169e+01 4 4 0
3972 444 1 4.1499999999999998e-01 1.0288689391749758e+01 2.1018660814733394e+00 2.4835360258203899e+01 6 2 0
5949 444 1 4.1499999999999998e-01 9.3851274898287382e+00 5.5982794008598482e+00 2.9308044969214837e+01 -1 3 0
4797 444 1 4.1499999999999998e-01 6.9465778773874298e+00 2.9795901732357986e+00 3.1179120965304122e+01 -1 5 0
4366 444 2 -8.2999999999999996e-01 3.0572044871596940e+00 6.8242955957909270e+00 2.7691733372190971e+01 4 1 0
3897 444 1 4.1499999999999998e-01 4.3505207108572010e+00 3.3978504862324939e+00 2.6229361855322036e+01 0 -4 0
3849 444 1 4.1499999999999998e-01 2.5845218794144746e+00 1.7692128523651345e+00 2.9123495565224999e+01 -5 -1 0
4952 444 1 4.1499999999999998e-01 8.1228808218697512e+00 5.7440532689514194e+00 2.7429867749894342e+01 6 0 0
3026 444 1 4.1499999999999998e-01 1.1389367051090959e+01 6.6821478341696627e+00 2.8681615460526316e+01 2 1 0
3896 444 1 4.1499999999999998e-01 4.9713681788413329e+00 2.1242184177713099e+00 2.5696159185564088e+01 0 -4 0
1863 444 1 4.1499999999999998e-01 1.0975365886031607e+01 3.3428472618106930e+00 3.2108847982315275e+01 -1 -3 0
1861 444 2 -8.2999999999999996e-01 1.0408146805742165e+01 3.7871337768339433e+00 3.1478685381097691e+01 -1 -3 0
3895 444 2 -8.2999999999999996e-01 4.2857730360780879e+00 2.4443188522778025e+00 2.6282441777339322e+01 0 -4 0
1066 444 2 -8.2999999999999996e-01 2.5181367469450153e+00 5.4342330418461726e+00 2.5613895384155246e+01 0 1 0
591 444 1 4.1499999999999998e-01 1.9547107084775284e-01 5.5759300764715976e+00 2.8517287195967906e+01 -5 3 0
4951 444 2 -8.2999999999999996e-01 7.4959402915208351e+00 6.4422604905013179e+00 2.7618773135818039e+01 6 0 0
2711 444 1 4.1499999999999998e-01 4.4518875451224948e+00 7.7095041564290314e+00 3.0851973944895434e+01 -2 3 0
1068 444 1 4.1499999999999998e-01 2.6216767262537028e+00 5.9463610481040217e+00 2.6415915596423492e+01 0 1 0
1067 444 1 4.1499999999999998e-01 1.9306251603583524e+00 4.7196188126967069e+00 2.5859636224612927e+01 0 1 0
2710 444 2 -8.2999999999999996e-01 3.7558531039171799e+00 7.5062447672085284e+00 3.1476836911250789e+01 -2 3 0
3706 444 2 -8.2999999999999996e-01 6.6983981814913927e+00 5.8039295834113256e+00 3.1150014510336593e+01 -4 -2 0
4795 444 2 -8.2999999999999996e-01 7.5198677187413265e+00 3.5164270132585940e+00 3.1726274366932746e+01 -1 5 0
4579 444 2 -8.2999999999999996e-01 1.1773592599760339e+00 3.7265207507069564e+00 2.7097447706284790e+01 8 7 0
763 444 2 -8.2999999999999996e-01 5.4126424903931980e+00 4.5843002833979609e+00 2.7593387486395578e+01 0 1 0
4295 444 1 4.1499999999999998e-01 6.3850364872544372e+00 2.1406245702217941e+00 2.8651871578256724e+01 -4 1 0
3707 444 1 4.1499999999999998e-01 6.4107033215550562e+00 6.0472176578400143e+00 3.2029943210737116e+01 -4 -2 0
4294 444 2 -8.2999999999999996e-01 5.6217931250095008e+00 2.5302837947002219e+00 2.9078318746271030e+01 -4 1 0
4296 444 1 4.1499999999999998e-01 5.4872861620225626e+00 3.3591691005126583e+00 2.8618874545492488e+01 -4 1 0
764 444 1 4.1499999999999998e-01 4.5970811298904648e+00 4.9472266765476647e+00 2.7938897483087437e+01 0 1 0
260 444 1 4.1499999999999998e-01 3.7249774665518758e+00 2.2191879440117157e+00 3.1506884887260515e+01 -5 -5 0
1193 444 1 4.1499999999999998e-01 7.0084815108137093e+00 3.0181539758247000e+00 2.4970101071980952e+01 -3 1 0
4526 444 1 4.1499999999999998e-01 1.6238229753655036e+00 2.8337737422906244e+00 3.0792233459664391e+01 0 3 0
261 444 1 4.1499999999999998e-01 4.5034385912779777e+00 2.4167494294812459e+00 3.0223583195596756e+01 -5 -5 0
259 444 2 -8.2999999999999996e-01 3.6228018810423603e+00 2.4837526872126143e+00 3.0592665206305718e+01 -5 -5 0
1192 444 2 -8.2999999999999996e-01 7.6999682704463845e+00 3.4855592100687169e+00 2.5438727286498619e+01 -3 1 0
4428 444 1 4.1499999999999998e-01 8.9965654057132394e+00 4.4932507773217614e+00 2.6326968314347209e+01 1 4 0
4426 444 2 -8.2999999999999996e-01 9.6653088249613610e+00 4.7307236537870541e+00 2.6969324503733194e+01 1 4 0
4427 444 1 4.1499999999999998e-01 1.0463222937222373e+01 4.8465495055477490e+00 2.6453426749665649e+01 1 4 0
4525 444 2 -8.2999999999999996e-01 7.1829158633342416e-01 3.0781206119088420e+00 3.0983387508842601e+01 0 3 0
4527 444 1 4.1499999999999998e-01 7.8485638506138156e-01 3.9345262649651773e+00 3.1405727005126007e+01 0 3 0
1194 444 1 4.1499999999999998e-01 7.5950473989889637e+00 3.2170955808051822e+00 2.6351498317547257e+01 -3 1 0
3560 444 1 4.1499999999999998e-01 1.0252411416449883e+01 3.2107050604133813e+00 2.9734158643404879e+01 2 -1 0
1668 444 1 4.1499999999999998e-01 9.2578030500770048e-01 6.0726204890470585e+00 3.0596751470756750e+01 6 1 0
3559 444 2 -8.2999999999999996e-01 9.7164915637032916e+00 2.8318148502386582e+00 2.9037405559323656e+01 2 -1 0
765 444 1 4.1499999999999998e-01 6.0439312197818325e+00 5.3000627579732953e+00 2.7666817492824041e+01 0 1 0
1667 444 1 4.1499999999999998e-01 1.8448080137182765e+00 6.6145195416187139e+00 3.1670822572800244e+01 6 1 0
1666 444 2 -8.2999999999999996e-01 1.1257516486769104e+00 5.9986211278773061e+00 3.1529900683654905e+01 6 1 0
3708 444 1 4.1499999999999998e-01 6.9394797217821349e+00 4.8804736941725952e+00 3.1223097555418505e+01 -4 -2 0
3561 444 1 4.1499999999999998e-01 9.8099454914933606e+00 3.4406662798683727e+00 2.8304739971903810e+01 2 -1 0