LAMMPS data file via write_data, version 11 Aug 2017, timestep = 500000

7176 atoms
4 atom types
4000 bonds
1 bond types
2000 angles
1 angle types

0.0000000000000000e+00 4.5679949999999998e+01 xlo xhi
0.0000000000000000e+00 4.6885919999999999e+01 ylo yhi
0.0000000000000000e+00 6.5000000000000000e+01 zlo zhi

Masses

1 1.0079
2 15.9994
3 22.9898
4 107.868

Bond Coeffs # harmonic

1 450 0.9572

Angle Coeffs # harmonic

1 55 104.52

Atoms # full

6025 444 4 0.0000000000000000e+00 1.6907200000000000e+00 0.0000000000000000e+00 0.0000000000000000e+00 0 0 0
6026 444 4 0.0000000000000000e+00 4.2285000000000004e+00 1.4651900000000000e+00 0.0000000000000000e+00 0 0 0
6027 444 4 -8.3330000000000001e-02 1.6907700000000001e+00 0.0000000000000000e+00 7.1781499999999996e+00 0 0 0
6028 444 4 -8.3330000000000001e-02 4.2285500000000003e+00 1.4651900000000000e+00 7.1781499999999996e+00 0 0 0
6029 444 4 0.0000000000000000e+00 2.5366499999999998e+00 1.4651900000000000e+00 2.3926400000000001e+00 0 0 0
6030 444 4 0.0000000000000000e+00 5.0744199999999999e+00 0.0000000000000000e+00 2.3926400000000001e+00 0 0 0
6031 444 4 0.0000000000000000e+00 8.4509000000000001e-01 1.4651900000000000e+00 4.7824200000000001e+00 0 0 0
6032 444 4 0.0000000000000000e+00 3.3828600000000000e+00 0.0000000000000000e+00 4.7824499999999999e+00 0 0 0
6033 444 4 0.0000000000000000e+00 1.6907200000000000e+00 2.9303699999999999e+00 0.0000000000000000e+00 0 0 0
6034 444 4 0.0000000000000000e+00 4.2285000000000004e+00 4.3955599999999997e+00 0.0000000000000000e+00 0 0 0
6035 444 4 -8.3330000000000001e-02 1.6907700000000001e+00 2.9303699999999999e+00 7.1781899999999998e+00 0 0 0
6036 444 4 -8.3330000000000001e-02 4.2285500000000003e+00 4.3955599999999997e+00 7.1781600000000001e+00 0 0 0
6037 444 4 0.0000000000000000e+00 2.5366499999999998e+00 4.3955599999999997e+00 2.3926400000000001e+00 0 0 0
6038 444 4 0.0000000000000000e+00 5.0744199999999999e+00 2.9303699999999999e+00 2.3926400000000001e+00 0 0 0
6039 444 4 0.0000000000000000e+00 8.4509000000000001e-01 4.3955599999999997e+00 4.7824499999999999e+00 0 0 0
6040 444 4 0.0000000000000000e+00 3.3828700000000000e+00 2.9303699999999999e+00 4.7824400000000002e+00 0 0 0
6041 444 4 0.0000000000000000e+00 1.6907200000000000e+00 5.8607399999999998e+00 0.0000000000000000e+00 0 0 0
6042 444 4 0.0000000000000000e+00 4.2285000000000004e+00 7.3259299999999996e+00 0.0000000000000000e+00 0 0 0
6043 444 4 -8.3330000000000001e-02 1.6907700000000001e+00 5.8607399999999998e+00 7.1781499999999996e+00 0 0 0
6044 444 4 -8.3330000000000001e-02 4.2285500000000003e+00 7.3259299999999996e+00 7.1781499999999996e+00 0 0 0
6045 444 4 0.0000000000000000e+00 2.5366499999999998e+00 7.3259299999999996e+00 2.3926400000000001e+00 0 0 0
6046 444 4 0.0000000000000000e+00 5.0744199999999999e+00 5.8607399999999998e+00 2.3926400000000001e+00 0 0 0
6047 444 4 0.0000000000000000e+00 8.4509000000000001e-01 7.3259299999999996e+00 4.7824200000000001e+00 0 0 0
6048 444 4 0.0000000000000000e+00 3.3828600000000000e+00 5.8607399999999998e+00 4.7824499999999999e+00 0 0 0
6153 444 4 0.0000000000000000e+00 6.7662699999999996e+00 0.0000000000000000e+00 0.0000000000000000e+00 0 0 0
6155 444 4 -8.3330000000000001e-02 6.7663200000000003e+00 0.0000000000000000e+00 7.1781499999999996e+00 0 0 0
6157 444 4 0.0000000000000000e+00 7.6121999999999996e+00 1.4651900000000000e+00 2.3926400000000001e+00 0 0 0
6159 444 4 0.0000000000000000e+00 5.9206399999999997e+00 1.4651900000000000e+00 4.7824200000000001e+00 0 0 0
6161 444 4 0.0000000000000000e+00 6.7662699999999996e+00 2.9303699999999999e+00 0.0000000000000000e+00 0 0 0
6163 444 4 -8.3330000000000001e-02 6.7663200000000003e+00 2.9303699999999999e+00 7.1781899999999998e+00 0 0 0
6165 444 4 0.0000000000000000e+00 7.6121999999999996e+00 4.3955599999999997e+00 2.3926400000000001e+00 0 0 0
6167 444 4 0.0000000000000000e+00 5.9206399999999997e+00 4.3955599999999997e+00 4.7824499999999999e+00 0 0 0
6169 444 4 0.0000000000000000e+00 6.7662699999999996e+00 5.8607399999999998e+00 0.0000000000000000e+00 0 0 0
6171 444 4 -8.3330000000000001e-02 6.7663200000000003e+00 5.8607399999999998e+00 7.1781499999999996e+00 0 0 0
6173 444 4 0.0000000000000000e+00 7.6121999999999996e+00 7.3259299999999996e+00 2.3926400000000001e+00 0 0 0
6175 444 4 0.0000000000000000e+00 5.9206399999999997e+00 7.3259299999999996e+00 4.7824200000000001e+00 0 0 0
6154 444 4 0.0000000000000000e+00 9.3040500000000002e+00 1.4651900000000000e+00 0.0000000000000000e+00 0 0 0
6156 444 4 -8.3330000000000001e-02 9.3041000000000000e+00 1.4651900000000000e+00 7.1781499999999996e+00 0 0 0
6158 444 4 0.0000000000000000e+00 1.0149970000000000e+01 0.0000000000000000e+00 2.3926400000000001e+00 0 0 0
6160 444 4 0.0000000000000000e+00 8.4584100000000007e+00 0.0000000000000000e+00 4.7824499999999999e+00 0 0 0
6162 444 4 0.0000000000000000e+00 9.3040500000000002e+00 4.3955599999999997e+00 0.0000000000000000e+00 0 0 0
6164 444 4 -8.3330000000000001e-02 9.3041000000000000e+00 4.3955599999999997e+00 7.1781600000000001e+00 0 0 0
6166 444 4 0.0000000000000000e+00 1.0149970000000000e+01 2.9303699999999999e+00 2.3926400000000001e+00 0 0 0
6168 444 4 0.0000000000000000e+00 8.4584200000000003e+00 2.9303699999999999e+00 4.7824400000000002e+00 0 0 0
6170 444 4 0.0000000000000000e+00 9.3040500000000002e+00 7.3259299999999996e+00 0.0000000000000000e+00 0 0 0
6172 444 4 -8.3330000000000001e-02 9.3041000000000000e+00 7.3259299999999996e+00 7.1781499999999996e+00 0 0 0
6174 444 4 0.0000000000000000e+00 1.0149970000000000e+01 5.8607399999999998e+00 2.3926400000000001e+00 0 0 0
6176 444 4 0.0000000000000000e+00 8.4584100000000007e+00 5.8607399999999998e+00 4.7824499999999999e+00 0 0 0
6287 444 4 0.0000000000000000e+00 1.0996190000000000e+01 1.4651900000000000e+00 4.7824200000000001e+00 0 0 0
6295 444 4 0.0000000000000000e+00 1.0996190000000000e+01 4.3955599999999997e+00 4.7824499999999999e+00 0 0 0
6303 444 4 0.0000000000000000e+00 1.0996190000000000e+01 7.3259299999999996e+00 4.7824200000000001e+00 0 0 0
4492 444 2 -8.2999999999999996e-01 3.4020027743182291e+00 7.6165145311249427e-01 1.5878828145073022e+01 2 1 0
4398 444 1 4.1499999999999998e-01 1.0069501579657411e+01 5.1239490647912138e+00 9.7206890881016772e+00 -1 1 0
4592 444 1 4.1499999999999998e-01 1.1426440325753928e+00 3.5873589400781212e+00 1.0524542374092382e+01 2 3 0
4591 444 2 -8.2999999999999996e-01 1.8245454848702143e+00 4.1636791308236525e+00 1.0869649865281014e+01 2 3 0
603 444 1 4.1499999999999998e-01 5.4513137810157870e+00 4.2875311283804596e+00 1.2021532378861103e+01 2 5 0
4593 444 1 4.1499999999999998e-01 1.4682638860791164e+00 5.0460113991597098e+00 1.0765793242626467e+01 2 3 0
4396 444 2 -8.2999999999999996e-01 1.0081389080007076e+01 5.2580862693632264e+00 1.0668369621556996e+01 -1 1 0
1234 444 2 -8.2999999999999996e-01 1.0893476952635464e+01 3.3483449867667820e+00 1.3289786053660860e+01 2 -4 0
1773 444 1 4.1499999999999998e-01 9.4449197468066686e+00 5.0809433323106035e+00 1.2754172872726171e+01 4 -4 0
1817 444 1 4.1499999999999998e-01 2.9797742137849501e+00 2.1892933000346013e+00 1.3113240619394672e+01 0 0 0
1236 444 1 4.1499999999999998e-01 1.0154481018928026e+01 2.9004160179899312e+00 1.2878110262454209e+01 2 -4 0
760 444 2 -8.2999999999999996e-01 2.4525500120854287e+00 7.2034223481329995e+00 1.3786973363671210e+01 -6 2 0
601 444 2 -8.2999999999999996e-01 4.9686105314445088e+00 4.0974722519420297e+00 1.2825962109922775e+01 2 5 0
602 444 1 4.1499999999999998e-01 4.5969613640573845e+00 3.2270516226483963e+00 1.2682864873638618e+01 2 5 0
4919 444 1 4.1499999999999998e-01 5.9616323998003766e+00 1.4347959489550786e+00 9.6513486912127640e+00 -6 -1 0
761 444 1 4.1499999999999998e-01 3.2797028812434545e+00 6.7222239228952505e+00 1.3809303115261017e+01 -6 2 0
1818 444 1 4.1499999999999998e-01 2.0359897834007064e+00 3.2392167938662233e+00 1.2566589061117284e+01 0 0 0
3357 444 1 4.1499999999999998e-01 6.9542790467199680e+00 5.1220258266413099e+00 1.0404912686438369e+01 1 2 0
4920 444 1 4.1499999999999998e-01 7.4345226376090023e+00 1.6626310790080339e+00 9.9170193494778509e+00 -6 -1 0
1816 444 2 -8.2999999999999996e-01 2.2805090326375006e+00 2.7883454758345150e+00 1.3374771000206643e+01 0 0 0
1771 444 2 -8.2999999999999996e-01 8.6252055614790031e+00 4.9176710023756431e+00 1.3220695200648299e+01 4 -4 0
1772 444 1 4.1499999999999998e-01 8.1814575847313549e+00 5.7657450382369140e+00 1.3230203856758809e+01 4 -4 0
3356 444 1 4.1499999999999998e-01 7.4076140687847101e+00 3.7004814349297872e+00 1.0661026783381073e+01 1 2 0
3355 444 2 -8.2999999999999996e-01 6.6451018122805072e+00 4.2753314851630648e+00 1.0727016463054385e+01 1 2 0
758 444 1 4.1499999999999998e-01 7.7284692619475361e+00 3.6063743626628360e+00 1.3867653091939539e+01 -4 0 0
757 444 2 -8.2999999999999996e-01 7.0200214761208688e+00 3.0685235708189866e+00 1.4221277817439056e+01 -4 0 0
5407 444 2 -8.2999999999999996e-01 4.4272877976629870e+00 5.5343205012924725e+00 1.5003660359962250e+01 0 -2 0
5408 444 1 4.1499999999999998e-01 4.6963398629907802e+00 5.1333301679044459e+00 1.4177192152247866e+01 0 -2 0
4551 444 1 4.1499999999999998e-01 1.5856942844659556e+00 3.7193376465480266e+00 1.4676524569874591e+01 -1 2 0
4677 444 1 4.1499999999999998e-01 6.7698532002234035e+00 6.3475650206887293e+00 1.5934674661108762e+01 -2 -1 0
4824 444 1 4.1499999999999998e-01 3.3013101588373517e+00 3.2220118806891449e+00 1.0329273200255320e+01 0 0 0
5409 444 1 4.1499999999999998e-01 4.2651876425178399e+00 4.7938085858080699e+00 1.5588123803485082e+01 0 -2 0
4918 444 2 -8.2999999999999996e-01 6.6888019279144109e+00 1.1304311218418830e+00 1.0194320955673041e+01 -6 -1 0
4713 444 1 4.1499999999999998e-01 8.2041303934187084e+00 2.6436535369572516e+00 1.5878788676875780e+01 3 3 0
759 444 1 4.1499999999999998e-01 6.2329113300191406e+00 3.3882633376181399e+00 1.3780306075100798e+01 -4 0 0
4822 444 2 -8.2999999999999996e-01 4.1368865729902415e+00 2.8061474924383778e+00 1.0116900572048504e+01 0 0 0
4823 444 1 4.1499999999999998e-01 4.4673183529971707e+00 3.3006884950612978e+00 9.3669162671524013e+00 0 0 0
4858 444 2 -8.2999999999999996e-01 4.4115877669606087e+00 1.5577005111185362e+00 1.2450585027377000e+01 -1 3 0
762 444 1 4.1499999999999998e-01 2.1705109886709568e+00 7.1536119836100642e+00 1.2873625177762447e+01 -6 2 0
4549 444 2 -8.2999999999999996e-01 1.0731105802829455e+00 3.9215232382818113e+00 1.5459219155187274e+01 -1 2 0
2965 444 2 -8.2999999999999996e-01 7.2006876372141271e+00 6.8513537051921451e+00 1.0194615065704825e+01 -1 1 0
4397 444 1 4.1499999999999998e-01 1.0708000913391619e+01 5.9691875631161437e+00 1.0802255423897696e+01 -1 1 0
204 444 1 4.1499999999999998e-01 7.1684983091496894e+00 1.6015563760256213e+00 1.3331534127599141e+01 3 0 0
291 444 1 4.1499999999999998e-01 9.6302978819077527e+00 2.0795000100102654e+00 1.0663174592455341e+01 1 -5 0
4860 444 1 4.1499999999999998e-01 4.6794912605160226e+00 6.3962729453882550e-01 1.2490605366920416e+01 -1 3 0
3830 444 1 4.1499999999999998e-01 4.3329755441081073e+00 6.8572271323151828e+00 1.6221595276969087e+01 0 1 0
202 444 2 -8.2999999999999996e-01 7.2309648486400127e+00 7.2404518163682485e-01 1.2954300514823837e+01 3 0 0
4859 444 1 4.1499999999999998e-01 4.6053061246361899e+00 1.8252815191073324e+00 1.1552193806835060e+01 -1 3 0
4550 444 1 4.1499999999999998e-01 2.3375644785109523e-01 3.4842612083228159e+00 1.5315976252676672e+01 -1 2 0
4853 444 1 4.1499999999999998e-01 3.7903146515851827e+00 8.7126881114416876e-01 1.0016789747731723e+01 1 -3 0
1644 444 1 4.1499999999999998e-01 1.0723462932582036e+01 1.4537287811492332e+00 1.5615299240463553e+01 1 0 0
1642 444 2 -8.2999999999999996e-01 1.1162386815400694e+01 2.1787827818274019e+00 1.6060130881306947e+01 1 0 0
290 444 1 4.1499999999999998e-01 9.4205172110067643e+00 3.5501970053422447e+00 1.0954616291069971e+01 1 -5 0
203 444 1 4.1499999999999998e-01 7.2996033022550302e+00 8.7258478862065214e-01 1.2011190264601678e+01 3 0 0
2384 444 1 4.1499999999999998e-01 3.4931084320729529e+00 6.6010439220450188e+00 9.8554501484345582e+00 0 2 0
125 444 1 4.1499999999999998e-01 3.1958273027832351e-01 2.0828577590671444e+00 9.3263726253379797e+00 1 -2 0
5123 444 1 4.1499999999999998e-01 7.2894006840505787e-01 7.6583876795459167e+00 1.0854767358208747e+01 0 -1 0
1262 444 1 4.1499999999999998e-01 1.8466360183456105e+00 6.1039549562709006e+00 1.5782100394161164e+01 0 3 0
1889 444 1 4.1499999999999998e-01 7.6477510854793911e+00 7.3335744241343734e+00 1.1723374641049885e+01 -1 1 0
5124 444 1 4.1499999999999998e-01 8.7944518262857674e-01 6.9234417591718902e+00 9.5398156375345859e+00 0 -1 0
153 444 1 4.1499999999999998e-01 4.8154719568868067e+00 7.7962084701142738e+00 1.1957583503042210e+01 -1 3 0
5122 444 2 -8.2999999999999996e-01 1.2012492014557563e+00 6.9358015911892013e+00 1.0441215282085246e+01 0 -1 0
2113 444 2 -8.2999999999999996e-01 1.1407871057540781e+01 1.8313933467252985e-01 1.3929452771084113e+01 1 3 0
2383 444 2 -8.2999999999999996e-01 4.1123753888675560e+00 6.5171426240995647e+00 1.0580502603162873e+01 0 2 0
2385 444 1 4.1499999999999998e-01 4.6045456992348823e+00 5.7198570794323764e+00 1.0384706388496490e+01 0 2 0
2967 444 1 4.1499999999999998e-01 8.0157374972483986e+00 7.1572478063379625e+00 9.7966765661608939e+00 -1 1 0
289 444 2 -8.2999999999999996e-01 9.0275283070037897e+00 2.6880292986155250e+00 1.1090483611409153e+01 1 -5 0
4493 444 1 4.1499999999999998e-01 3.5130062036821768e+00 1.0119870679485841e+00 1.4961635545512870e+01 2 1 0
5433 444 1 4.1499999999999998e-01 1.3207513690307002e+00 8.6886204460024596e-01 1.3207584064033467e+01 -3 6 0
2966 444 1 4.1499999999999998e-01 6.5189265316474057e+00 7.1105022194019876e+00 9.5747146856408030e+00 -1 1 0
1888 444 2 -8.2999999999999996e-01 8.1541454337156694e+00 7.6634289244785085e+00 1.2465663467666802e+01 -1 1 0
5431 444 2 -8.2999999999999996e-01 1.5951076894553173e+00 1.2091801485028388e-01 1.3738187708371791e+01 -3 6 0
1214 444 1 4.1499999999999998e-01 2.7445520331222695e+00 1.9752997362516267e-01 1.9145779138854596e+01 -2 2 0
2104 444 2 -8.2999999999999996e-01 6.6040774695862470e-01 6.1644139757418681e-01 1.7959859888716764e+01 -2 0 0
4675 444 2 -8.2999999999999996e-01 6.9409458075717412e+00 6.7282454484526815e+00 1.6796093145717510e+01 -2 -1 0
4676 444 1 4.1499999999999998e-01 6.1200914854652044e+00 7.1583747079678499e+00 1.7035716256939480e+01 -2 -1 0
4711 444 2 -8.2999999999999996e-01 8.5247828906395888e+00 1.9358524550234342e+00 1.6437744567232979e+01 3 3 0
4604 444 1 4.1499999999999998e-01 1.3940981916870747e+00 1.4687714141677850e+00 2.2027976822107032e+01 0 1 0
4712 444 1 4.1499999999999998e-01 9.4179134049077646e+00 2.1949695255881676e+00 1.6664478861006760e+01 3 3 0
2579 444 1 4.1499999999999998e-01 5.5727743147714370e-01 2.2457434577260065e+00 2.3835372172750809e+01 2 -1 0
3829 444 2 -8.2999999999999996e-01 4.4845319061160289e+00 7.7707015160301767e+00 1.6464138351948399e+01 0 1 0
2474 444 1 4.1499999999999998e-01 9.4759539085560096e+00 7.5185439059819066e+00 2.0931659281679213e+01 2 -4 0
2473 444 2 -8.2999999999999996e-01 1.0123353927032667e+01 7.1848328028967634e+00 2.0310577680239373e+01 2 -4 0
3009 444 1 4.1499999999999998e-01 1.0035046356382191e+00 2.1448498228551256e+00 1.8155415660930785e+01 1 0 0
5022 444 1 4.1499999999999998e-01 4.3512025493353814e+00 2.2384878907962391e+00 1.6721480297262275e+01 -5 1 0
5021 444 1 4.1499999999999998e-01 5.7285838358292018e+00 2.6888098848273772e+00 1.6283386405512051e+01 -5 1 0
5020 444 2 -8.2999999999999996e-01 4.9360822545584684e+00 2.9962111080799554e+00 1.6723475082476050e+01 -5 1 0
5429 444 1 4.1499999999999998e-01 1.0928277322555884e+01 5.7641734295932618e+00 2.1082488852438921e+01 0 1 0
1261 444 2 -8.2999999999999996e-01 1.5752458704770238e+00 6.6210953821302310e+00 1.6540483853241380e+01 0 3 0
5211 444 1 4.1499999999999998e-01 7.1930223246220999e+00 7.7958665840022086e+00 2.2888061132077468e+01 4 2 0
1263 444 1 4.1499999999999998e-01 8.6618888561525287e-01 6.1137819117099612e+00 1.6935582988864017e+01 0 3 0
4411 444 2 -8.2999999999999996e-01 8.9784746343874851e+00 4.5058812916842497e+00 2.2818962324550736e+01 3 1 0
1828 444 2 -8.2999999999999996e-01 3.0456811708171028e+00 6.6123716098771519e+00 2.2364867735753460e+01 -2 0 0
1213 444 2 -8.2999999999999996e-01 3.5214049720635607e+00 5.8344627182157205e-01 1.8741056266706764e+01 -2 2 0
3930 444 1 4.1499999999999998e-01 9.3425380797825519e-01 4.7594647719027874e+00 2.1128108709017507e+01 1 0 0
3929 444 1 4.1499999999999998e-01 2.1628295445498740e+00 5.3020054613870942e+00 2.1826783589365419e+01 1 0 0
1830 444 1 4.1499999999999998e-01 3.9143515402374525e+00 6.8209023729268710e+00 2.2708610304935661e+01 -2 0 0
3928 444 2 -8.2999999999999996e-01 1.7777900721351738e+00 4.4917857860922474e+00 2.1492836605109936e+01 1 0 0
4960 444 2 -8.2999999999999996e-01 4.5072907755019394e+00 7.1211659819509068e+00 1.9017245680082009e+01 2 1 0
5272 444 2 -8.2999999999999996e-01 8.3498134265939132e+00 2.1934039850618481e+00 1.9898268052219205e+01 3 -2 0
2864 444 1 4.1499999999999998e-01 1.0292129322392833e+01 3.7517255223253030e+00 1.8243386650837152e+01 1 0 0
4412 444 1 4.1499999999999998e-01 9.0740335955048614e+00 3.5631023033628892e+00 2.2683802508254090e+01 3 1 0
2863 444 2 -8.2999999999999996e-01 1.0613014337589819e+01 3.3021477245467588e+00 1.9025144089085327e+01 1 0 0
2865 444 1 4.1499999999999998e-01 9.8389818252649199e+00 2.8732597631255636e+00 1.9390056051591344e+01 1 0 0
4413 444 1 4.1499999999999998e-01 9.8327316366464093e+00 4.8695163730634645e+00 2.2586053759563967e+01 3 1 0
4118 444 1 4.1499999999999998e-01 9.0816941327780700e+00 1.4016435515829697e+00 2.3573283211458715e+01 1 4 0
1208 444 1 4.1499999999999998e-01 4.1218539606377966e+00 5.3669192201957774e+00 1.8769540929093200e+01 2 5 0
6016 444 3 1.0000000000000000e+00 2.8259984262740101e+00 3.0105401255586091e+00 2.0002708220053481e+01 0 1 0
1207 444 2 -8.2999999999999996e-01 3.7614653897145973e+00 4.4957901103331848e+00 1.8603748670925487e+01 2 5 0
1209 444 1 4.1499999999999998e-01 4.3584979224952338e+00 4.1067252339987803e+00 1.7964676108653990e+01 2 5 0
4117 444 2 -8.2999999999999996e-01 9.5121220683671002e+00 2.0007377669135611e+00 2.2963323978526553e+01 1 4 0
4843 444 2 -8.2999999999999996e-01 6.9185066748101800e+00 4.8356817637589922e+00 2.1035438958452545e+01 4 0 0
3276 444 1 4.1499999999999998e-01 5.7725954165471318e+00 3.7216289513134417e+00 2.1157006730345056e+01 -1 2 0
4845 444 1 4.1499999999999998e-01 7.3508146275183890e+00 4.8096936047962879e+00 2.0181819301015107e+01 4 0 0
3274 444 2 -8.2999999999999996e-01 4.9922764154130030e+00 3.1872638918470262e+00 2.1304615023683596e+01 -1 2 0
1872 444 1 4.1499999999999998e-01 6.1121123777354045e+00 2.7724935430837241e+00 2.3901108207729699e+01 -2 0 0
5273 444 1 4.1499999999999998e-01 7.4301986043399637e+00 2.0390557669979850e+00 2.0114409406917733e+01 3 -2 0
4844 444 1 4.1499999999999998e-01 7.6318310117866908e+00 4.9568404180916037e+00 2.1662114369741808e+01 4 0 0
3275 444 1 4.1499999999999998e-01 4.8065142636220344e+00 3.2865689704306460e+00 2.2238350960998527e+01 -1 2 0
5274 444 1 4.1499999999999998e-01 8.6665627560274654e+00 1.3482173431789108e+00 1.9579580996814215e+01 3 -2 0
1661 444 1 4.1499999999999998e-01 5.5184987633743505e+00 5.4384672312746982e+00 2.3519718937199336e+01 2 0 0
1829 444 1 4.1499999999999998e-01 2.7591790954337281e+00 7.4168896726940599e+00 2.1932549076698567e+01 -2 0 0
1662 444 1 4.1499999999999998e-01 6.0192253334309429e+00 5.8635336726874687e+00 2.2155722260650023e+01 2 0 0
2578 444 2 -8.2999999999999996e-01 1.5041274044460144e+00 2.1335093880834268e+00 2.3919703505346071e+01 2 -1 0
1660 444 2 -8.2999999999999996e-01 5.8306015083834932e+00 6.2004153105707847e+00 2.3031601134231369e+01 2 0 0
2580 444 1 4.1499999999999998e-01 1.8769056982470333e+00 2.8838073959951021e+00 2.3456754726920064e+01 2 -1 0
5430 444 1 4.1499999999999998e-01 1.1174547615767590e+01 4.4963441527411510e+00 2.0292643396641385e+01 0 1 0
4363 444 2 -8.2999999999999996e-01 9.6699906017355612e+00 6.8878901610458279e+00 1.7255918110124703e+01 -1 1 0
4365 444 1 4.1499999999999998e-01 9.5398613849708269e+00 6.8258807114428848e+00 1.8202202023230541e+01 -1 1 0
4364 444 1 4.1499999999999998e-01 8.8203641919326738e+00 6.6557509163208657e+00 1.6881113390823437e+01 -1 1 0
4962 444 1 4.1499999999999998e-01 4.2936129263551059e+00 7.5980365774315306e+00 1.8215267618944193e+01 2 1 0
4757 444 1 4.1499999999999998e-01 9.2585308109251478e+00 7.3124432781265964e+00 2.3251046921478583e+01 -2 0 0
4603 444 2 -8.2999999999999996e-01 1.6283348986526545e+00 1.1701160121254177e+00 2.1149244484574101e+01 0 1 0
1087 444 2 -8.2999999999999996e-01 6.4132255402884306e+00 1.1960874917857578e+00 2.3383861064687959e+01 0 3 0
1088 444 1 4.1499999999999998e-01 6.8088103956958550e+00 8.9713778455132809e-01 2.2565097522157608e+01 0 3 0
4119 444 1 4.1499999999999998e-01 9.9482936555465695e+00 1.4282715702035267e+00 2.2332238479240949e+01 1 4 0
3008 444 1 4.1499999999999998e-01 1.2537354769208535e+00 3.4772120120865657e+00 1.7481553029051870e+01 1 0 0
3007 444 2 -8.2999999999999996e-01 1.0161655126435121e+00 3.0872161227747790e+00 1.8322799543081707e+01 1 0 0
4961 444 1 4.1499999999999998e-01 4.0845714058923539e+00 7.6225891620222264e+00 1.9714465664424566e+01 2 1 0
1870 444 2 -8.2999999999999996e-01 5.7346283219645899e+00 3.6139728693330420e+00 2.4157331227955439e+01 -2 0 0
623 444 1 4.1499999999999998e-01 8.3685869798175965e+00 5.4607445379077024e+00 2.4342503619380967e+01 -3 0 0
4756 444 2 -8.2999999999999996e-01 1.0098728984235171e+01 7.2148197094540336e+00 2.3699119006655931e+01 -2 0 0
2811 444 1 4.1499999999999998e-01 1.1417202678165168e+01 6.9656295465256095e+00 1.6965625916201670e+01 1 4 0
1089 444 1 4.1499999999999998e-01 6.2821285808512011e+00 3.9627251441218847e-01 2.3893116926865492e+01 0 3 0
4605 444 1 4.1499999999999998e-01 1.7695677000001104e+00 2.2830522631747294e-01 2.1245569122288423e+01 0 1 0
5428 444 2 -8.2999999999999996e-01 1.1387476266159938e+01 4.9252161163568742e+00 2.1121475827414265e+01 0 1 0
1215 444 1 4.1499999999999998e-01 3.2836397746210002e+00 6.9156434713215920e-01 1.7820181182068271e+01 -2 2 0
3327 444 1 4.1499999999999998e-01 4.4357004926166290e+00 1.8405033671392346e-02 2.0187415556885441e+01 -3 1 0
5144 444 1 4.1499999999999998e-01 4.0805934014944184e-01 6.3350076597982454e+00 3.0002434708998610e+01 -2 0 0
5922 444 1 4.1499999999999998e-01 9.0447505230762086e+00 7.0999347555370546e-02 2.9836072651837281e+01 0 0 0
1496 444 1 4.1499999999999998e-01 6.9308974958602909e-01 6.1651381544112788e-02 2.7171841866610752e+01 1 0 0
5145 444 1 4.1499999999999998e-01 1.3173466020428530e+00 6.8447919658977163e+00 3.1100256369621022e+01 -2 0 0
4367 444 1 4.1499999999999998e-01 1.0604264272946551e+01 3.3396896032522343e+00 3.1131634192862212e+01 1 2 0
2934 444 1 4.1499999999999998e-01 5.2082018488817612e+00 4.1873016749467187e+00 2.7096314290709852e+01 -3 3 0
3456 444 1 4.1499999999999998e-01 8.9007428749165154e+00 2.2179234003255597e+00 2.5764814862076982e+01 1 4 0
1292 444 1 4.1499999999999998e-01 1.0479933734721032e+01 5.9324107828252277e+00 2.7561901150249220e+01 1 5 0
1994 444 1 4.1499999999999998e-01 7.9022238781260032e+00 6.6704841625756215e+00 2.6932069923623814e+01 0 -4 0
4344 444 1 4.1499999999999998e-01 1.0747796678706809e+01 1.7936997147897520e+00 2.6909907903662472e+01 5 3 0
4366 444 2 -8.2999999999999996e-01 1.1245824651047398e+01 2.7547693289896529e+00 3.1534747834596519e+01 1 2 0
1993 444 2 -8.2999999999999996e-01 7.4775275885944064e+00 6.8014494649118733e+00 2.7779839431231999e+01 0 -4 0
624 444 1 4.1499999999999998e-01 7.4040157726483535e+00 5.0351419687614412e+00 2.5428947401492682e+01 -3 0 0
1871 444 1 4.1499999999999998e-01 5.6546796576699894e+00 3.5611045134455170e+00 2.5109720332677824e+01 -2 0 0
2932 444 2 -8.2999999999999996e-01 6.0856688181941481e+00 3.9409160463170116e+00 2.6803777247047783e+01 -3 3 0
2933 444 1 4.1499999999999998e-01 6.6659107034490015e+00 4.5752369173363547e+00 2.7224714800401575e+01 -3 3 0
1995 444 1 4.1499999999999998e-01 6.5406653556941512e+00 6.7621231724362039e+00 2.7587551588400515e+01 0 -4 0
1733 444 1 4.1499999999999998e-01 1.0225604539464554e+01 7.4432682683862090e+00 3.2074124057295492e+01 1 0 0
3454 444 2 -8.2999999999999996e-01 9.2100357012987271e+00 2.6515526751870100e+00 2.6560135841997706e+01 1 4 0
3455 444 1 4.1499999999999998e-01 9.6720087844404627e+00 3.4286563402142423e+00 2.6245616147196458e+01 1 4 0
4168 444 2 -8.2999999999999996e-01 8.9965920327169790e+00 1.3829270431209935e-02 2.4848002450732974e+01 2 1 0
4107 444 1 4.1499999999999998e-01 1.6980246574848816e+00 3.2286523842393402e+00 2.6730248915603429e+01 -3 2 0
5143 444 2 -8.2999999999999996e-01 1.2837897396317670e+00 6.6894692276690373e+00 3.0156338430813118e+01 -2 0 0
622 444 2 -8.2999999999999996e-01 8.1776529811050640e+00 5.5768761557023510e+00 2.5273250550401766e+01 -3 0 0
1291 444 2 -8.2999999999999996e-01 1.0337732009844943e+01 6.0452677824233643e+00 2.8501727758620223e+01 1 5 0
1495 444 2 -8.2999999999999996e-01 1.6473032060469976e+00 1.1483254503890356e-01 2.7225511829846202e+01 1 0 0
4706 444 1 4.1499999999999998e-01 2.5529777018059119e+00 5.9608445526342440e+00 2.9238739649293208e+01 4 0 0
2368 444 2 -8.2999999999999996e-01 8.8040657159215669e+00 6.7433894804389523e+00 3.1547740878849289e+01 0 0 0
4705 444 2 -8.2999999999999996e-01 3.2578487732040053e+00 5.7895385335737073e+00 2.8614205496687919e+01 4 0 0
3249 444 1 4.1499999999999998e-01 6.3323297663609415e+00 3.0735905979100306e+00 3.1047895535480759e+01 2 -2 0
1934 444 1 4.1499999999999998e-01 8.8335601582652199e+00 2.0109329844532047e+00 2.8203072356165933e+01 -1 5 0
1933 444 2 -8.2999999999999996e-01 8.4100487219256799e+00 1.6381967544847287e+00 2.8976337516455594e+01 -1 5 0
5857 444 2 -8.2999999999999996e-01 6.6213982744630142e+00 7.7200909592158586e+00 3.0090620696632893e+01 1 -1 0
1126 444 2 -8.2999999999999996e-01 5.7781989928135227e+00 1.3316751485358804e+00 3.0755995760240790e+01 1 -2 0
1127 444 1 4.1499999999999998e-01 4.9528328037938669e+00 1.0188832850546743e+00 3.1126352222949151e+01 1 -2 0
5918 444 1 4.1499999999999998e-01 4.2074997041052864e+00 5.3842782216042346e+00 3.0104760293223475e+01 2 0 0
4106 444 1 4.1499999999999998e-01 2.9903249910668261e+00 2.8163210409215087e+00 2.7402438327978288e+01 -3 2 0
5609 444 1 4.1499999999999998e-01 8.3244277137525025e+00 4.2580096935304237e+00 3.0674262620727234e+01 1 2 0
1230 444 1 4.1499999999999998e-01 4.3864464804925198e+00 6.7054448936790756e+00 2.7726506042829666e+01 0 -6 0
5917 444 2 -8.2999999999999996e-01 4.7779041685944472e+00 5.5882703682574295e+00 3.0845880371760909e+01 2 0 0
5610 444 1 4.1499999999999998e-01 9.2106174361426465e+00 3.2984068837947191e+00 2.9908935247023589e+01 1 2 0
873 444 1 4.1499999999999998e-01 2.2592957893193635e+00 3.1761148556667834e-01 2.4495759923065759e+01 0 2 0
5793 444 1 4.1499999999999998e-01 2.9384132346291465e+00 1.0523339766537370e+00 2.8022622704198589e+01 0 1 0
3017 444 1 4.1499999999999998e-01 1.0107956166784328e+01 5.1582929471852115e+00 2.5308658262377097e+01 -2 3 0
5792 444 1 4.1499999999999998e-01 4.0023421556355343e+00 1.3525471528248461e+00 2.9056945402114213e+01 0 1 0
5791 444 2 -8.2999999999999996e-01 3.7420797602129401e+00 1.5543088443483568e+00 2.8158175280990047e+01 0 1 0
3016 444 2 -8.2999999999999996e-01 1.0749782272736280e+01 4.6232712319913603e+00 2.5775609810784864e+01 -2 3 0
4707 444 1 4.1499999999999998e-01 2.9098053868836811e+00 5.1065891410776567e+00 2.8040901210028846e+01 4 0 0
4105 444 2 -8.2999999999999996e-01 2.5239829296228402e+00 3.5800831872458518e+00 2.7062696464272662e+01 -3 2 0
5608 444 2 -8.2999999999999996e-01 9.1859615617014700e+00 4.1873036686958995e+00 3.0263176137288589e+01 1 2 0
5919 444 1 4.1499999999999998e-01 5.1687190404097647e+00 6.4330249746462060e+00 3.0622527657767659e+01 2 0 0
1128 444 1 4.1499999999999998e-01 6.4540481569064614e+00 8.6677394765922244e-01 3.1249277276311659e+01 1 -2 0
1293 444 1 4.1499999999999998e-01 9.4842823494073798e+00 5.6438629333871582e+00 2.8665220583771791e+01 1 5 0
3247 444 2 -8.2999999999999996e-01 6.6511355513705475e+00 3.9479426095639734e+00 3.1271733218103105e+01 2 -2 0
1935 444 1 4.1499999999999998e-01 7.4856086712905539e+00 1.8656167627709821e+00 2.8876723351659667e+01 -1 5 0
2370 444 1 4.1499999999999998e-01 8.0660324861367307e+00 6.8505946593900608e+00 3.0947702258370278e+01 0 0 0
2369 444 1 4.1499999999999998e-01 9.1561405302150014e+00 5.8772108816327258e+00 3.1342777079177253e+01 0 0 0
3248 444 1 4.1499999999999998e-01 5.8755262307151748e+00 4.5065567062570251e+00 3.1220620940301902e+01 2 -2 0
1228 444 2 -8.2999999999999996e-01 5.0641186590218146e+00 7.1443063897542167e+00 2.7212314555776654e+01 0 -6 0
5858 444 1 4.1499999999999998e-01 6.8149968170886268e+00 7.3957529041666374e+00 2.9211100175387330e+01 1 -1 0
4758 444 1 4.1499999999999998e-01 1.0044098247607151e+01 7.8128293817903298e+00 2.4444526197756080e+01 -2 0 0
1732 444 2 -8.2999999999999996e-01 1.1085278112205208e+01 7.7990566235841881e+00 3.2299086291845818e+01 1 0 0
1734 444 1 4.1499999999999998e-01 1.1191612412969564e+01 7.5996575787938054e+00 3.3229228776878948e+01 1 0 0
3301 444 2 -8.2999999999999996e-01 3.5446017843798381e+00 6.5880891179026300e+00 3.3225847547673908e+01 -3 2 0
3302 444 1 4.1499999999999998e-01 4.2068804295958939e+00 7.2578729122746539e+00 3.3055524951450465e+01 -3 2 0
4525 444 2 -8.2999999999999996e-01 2.2882690757137356e-01 3.4627300981329867e+00 3.5027469021690642e+01 2 1 0
3303 444 1 4.1499999999999998e-01 3.6541763666219524e+00 5.9560968250183572e+00 3.2515346510788589e+01 -3 2 0
3598 444 2 -8.2999999999999996e-01 1.1377662932369637e+01 2.9423365173787310e+00 3.5548017364132448e+01 -2 0 0
1738 444 2 -8.2999999999999996e-01 3.1706693028813095e+00 2.7019892095956322e+00 3.6765090283077114e+01 0 3 0
2552 444 1 4.1499999999999998e-01 5.5965706435380405e+00 5.4799754400861742e+00 3.5526306965328928e+01 -2 3 0