LAMMPS data file via write_data, version 11 Aug 2017, timestep = 5000000

7170 atoms
4 atom types
4000 bonds
1 bond types
2000 angles
1 angle types

0.0000000000000000e+00 4.5679949999999998e+01 xlo xhi
0.0000000000000000e+00 4.6885919999999999e+01 ylo yhi
0.0000000000000000e+00 6.5000000000000000e+01 zlo zhi

Masses

1 1.0079
2 15.9994
3 22.9898
4 107.868

Bond Coeffs # harmonic

1 450 0.9572

Angle Coeffs # harmonic

1 55 104.52

Atoms # full

6019 444 4 0.0000000000000000e+00 1.6907200000000000e+00 0.0000000000000000e+00 0.0000000000000000e+00 0 0 0
6020 444 4 0.0000000000000000e+00 4.2285000000000004e+00 1.4651900000000000e+00 0.0000000000000000e+00 0 0 0
6021 444 4 -6.2500000000000000e-02 1.6907700000000001e+00 0.0000000000000000e+00 7.1781499999999996e+00 0 0 0
6022 444 4 -6.2500000000000000e-02 4.2285500000000003e+00 1.4651900000000000e+00 7.1781499999999996e+00 0 0 0
6023 444 4 0.0000000000000000e+00 2.5366499999999998e+00 1.4651900000000000e+00 2.3926400000000001e+00 0 0 0
6024 444 4 0.0000000000000000e+00 5.0744199999999999e+00 0.0000000000000000e+00 2.3926400000000001e+00 0 0 0
6025 444 4 0.0000000000000000e+00 8.4509000000000001e-01 1.4651900000000000e+00 4.7824200000000001e+00 0 0 0
6026 444 4 0.0000000000000000e+00 3.3828600000000000e+00 0.0000000000000000e+00 4.7824499999999999e+00 0 0 0
6027 444 4 0.0000000000000000e+00 1.6907200000000000e+00 2.9303699999999999e+00 0.0000000000000000e+00 0 0 0
6028 444 4 0.0000000000000000e+00 4.2285000000000004e+00 4.3955599999999997e+00 0.0000000000000000e+00 0 0 0
6029 444 4 -6.2500000000000000e-02 1.6907700000000001e+00 2.9303699999999999e+00 7.1781899999999998e+00 0 0 0
6030 444 4 -6.2500000000000000e-02 4.2285500000000003e+00 4.3955599999999997e+00 7.1781600000000001e+00 0 0 0
6031 444 4 0.0000000000000000e+00 2.5366499999999998e+00 4.3955599999999997e+00 2.3926400000000001e+00 0 0 0
6032 444 4 0.0000000000000000e+00 5.0744199999999999e+00 2.9303699999999999e+00 2.3926400000000001e+00 0 0 0
6033 444 4 0.0000000000000000e+00 8.4509000000000001e-01 4.3955599999999997e+00 4.7824499999999999e+00 0 0 0
6034 444 4 0.0000000000000000e+00 3.3828700000000000e+00 2.9303699999999999e+00 4.7824400000000002e+00 0 0 0
6035 444 4 0.0000000000000000e+00 1.6907200000000000e+00 5.8607399999999998e+00 0.0000000000000000e+00 0 0 0
6036 444 4 0.0000000000000000e+00 4.2285000000000004e+00 7.3259299999999996e+00 0.0000000000000000e+00 0 0 0
6037 444 4 -6.2500000000000000e-02 1.6907700000000001e+00 5.8607399999999998e+00 7.1781499999999996e+00 0 0 0
6038 444 4 -6.2500000000000000e-02 4.2285500000000003e+00 7.3259299999999996e+00 7.1781499999999996e+00 0 0 0
6039 444 4 0.0000000000000000e+00 2.5366499999999998e+00 7.3259299999999996e+00 2.3926400000000001e+00 0 0 0
6040 444 4 0.0000000000000000e+00 5.0744199999999999e+00 5.8607399999999998e+00 2.3926400000000001e+00 0 0 0
6041 444 4 0.0000000000000000e+00 8.4509000000000001e-01 7.3259299999999996e+00 4.7824200000000001e+00 0 0 0
6042 444 4 0.0000000000000000e+00 3.3828600000000000e+00 5.8607399999999998e+00 4.7824499999999999e+00 0 0 0
6147 444 4 0.0000000000000000e+00 6.7662699999999996e+00 0.0000000000000000e+00 0.0000000000000000e+00 0 0 0
6149 444 4 -6.2500000000000000e-02 6.7663200000000003e+00 0.0000000000000000e+00 7.1781499999999996e+00 0 0 0
6151 444 4 0.0000000000000000e+00 7.6121999999999996e+00 1.4651900000000000e+00 2.3926400000000001e+00 0 0 0
6153 444 4 0.0000000000000000e+00 5.9206399999999997e+00 1.4651900000000000e+00 4.7824200000000001e+00 0 0 0
6155 444 4 0.0000000000000000e+00 6.7662699999999996e+00 2.9303699999999999e+00 0.0000000000000000e+00 0 0 0
6157 444 4 -6.2500000000000000e-02 6.7663200000000003e+00 2.9303699999999999e+00 7.1781899999999998e+00 0 0 0
6159 444 4 0.0000000000000000e+00 7.6121999999999996e+00 4.3955599999999997e+00 2.3926400000000001e+00 0 0 0
6161 444 4 0.0000000000000000e+00 5.9206399999999997e+00 4.3955599999999997e+00 4.7824499999999999e+00 0 0 0
6163 444 4 0.0000000000000000e+00 6.7662699999999996e+00 5.8607399999999998e+00 0.0000000000000000e+00 0 0 0
6165 444 4 -6.2500000000000000e-02 6.7663200000000003e+00 5.8607399999999998e+00 7.1781499999999996e+00 0 0 0
6167 444 4 0.0000000000000000e+00 7.6121999999999996e+00 7.3259299999999996e+00 2.3926400000000001e+00 0 0 0
6169 444 4 0.0000000000000000e+00 5.9206399999999997e+00 7.3259299999999996e+00 4.7824200000000001e+00 0 0 0
6043 444 4 0.0000000000000000e+00 1.6907200000000000e+00 8.7911099999999998e+00 0.0000000000000000e+00 0 0 0
6044 444 4 0.0000000000000000e+00 4.2285000000000004e+00 1.0256300000000000e+01 0.0000000000000000e+00 0 0 0
6045 444 4 -6.2500000000000000e-02 1.6907700000000001e+00 8.7911099999999998e+00 7.1781899999999998e+00 0 0 0
6046 444 4 -6.2500000000000000e-02 4.2285500000000003e+00 1.0256300000000000e+01 7.1781600000000001e+00 0 0 0
6047 444 4 0.0000000000000000e+00 2.5366499999999998e+00 1.0256300000000000e+01 2.3926400000000001e+00 0 0 0
6048 444 4 0.0000000000000000e+00 5.0744199999999999e+00 8.7911099999999998e+00 2.3926400000000001e+00 0 0 0
6049 444 4 0.0000000000000000e+00 8.4509000000000001e-01 1.0256300000000000e+01 4.7824499999999999e+00 0 0 0
6050 444 4 0.0000000000000000e+00 3.3828700000000000e+00 8.7911099999999998e+00 4.7824400000000002e+00 0 0 0
6171 444 4 0.0000000000000000e+00 6.7662699999999996e+00 8.7911099999999998e+00 0.0000000000000000e+00 0 0 0
6173 444 4 -6.2500000000000000e-02 6.7663200000000003e+00 8.7911099999999998e+00 7.1781899999999998e+00 0 0 0
6175 444 4 0.0000000000000000e+00 7.6121999999999996e+00 1.0256300000000000e+01 2.3926400000000001e+00 0 0 0
6177 444 4 0.0000000000000000e+00 5.9206399999999997e+00 1.0256300000000000e+01 4.7824499999999999e+00 0 0 0
6148 444 4 0.0000000000000000e+00 9.3040500000000002e+00 1.4651900000000000e+00 0.0000000000000000e+00 0 0 0
6150 444 4 -6.2500000000000000e-02 9.3041000000000000e+00 1.4651900000000000e+00 7.1781499999999996e+00 0 0 0
6152 444 4 0.0000000000000000e+00 1.0149970000000000e+01 0.0000000000000000e+00 2.3926400000000001e+00 0 0 0
6154 444 4 0.0000000000000000e+00 8.4584100000000007e+00 0.0000000000000000e+00 4.7824499999999999e+00 0 0 0
6156 444 4 0.0000000000000000e+00 9.3040500000000002e+00 4.3955599999999997e+00 0.0000000000000000e+00 0 0 0
6158 444 4 -6.2500000000000000e-02 9.3041000000000000e+00 4.3955599999999997e+00 7.1781600000000001e+00 0 0 0
6160 444 4 0.0000000000000000e+00 1.0149970000000000e+01 2.9303699999999999e+00 2.3926400000000001e+00 0 0 0
6162 444 4 0.0000000000000000e+00 8.4584200000000003e+00 2.9303699999999999e+00 4.7824400000000002e+00 0 0 0
6164 444 4 0.0000000000000000e+00 9.3040500000000002e+00 7.3259299999999996e+00 0.0000000000000000e+00 0 0 0
6166 444 4 -6.2500000000000000e-02 9.3041000000000000e+00 7.3259299999999996e+00 7.1781499999999996e+00 0 0 0
6168 444 4 0.0000000000000000e+00 1.0149970000000000e+01 5.8607399999999998e+00 2.3926400000000001e+00 0 0 0
6170 444 4 0.0000000000000000e+00 8.4584100000000007e+00 5.8607399999999998e+00 4.7824499999999999e+00 0 0 0
6281 444 4 0.0000000000000000e+00 1.0996190000000000e+01 1.4651900000000000e+00 4.7824200000000001e+00 0 0 0
6289 444 4 0.0000000000000000e+00 1.0996190000000000e+01 4.3955599999999997e+00 4.7824499999999999e+00 0 0 0
6297 444 4 0.0000000000000000e+00 1.0996190000000000e+01 7.3259299999999996e+00 4.7824200000000001e+00 0 0 0
6172 444 4 0.0000000000000000e+00 9.3040500000000002e+00 1.0256300000000000e+01 0.0000000000000000e+00 0 0 0
6174 444 4 -6.2500000000000000e-02 9.3041000000000000e+00 1.0256300000000000e+01 7.1781600000000001e+00 0 0 0
6176 444 4 0.0000000000000000e+00 1.0149970000000000e+01 8.7911099999999998e+00 2.3926400000000001e+00 0 0 0
6178 444 4 0.0000000000000000e+00 8.4584200000000003e+00 8.7911099999999998e+00 4.7824400000000002e+00 0 0 0
6305 444 4 0.0000000000000000e+00 1.0996190000000000e+01 1.0256300000000000e+01 4.7824499999999999e+00 0 0 0
2728 444 2 -8.2999999999999996e-01 2.5214733909212361e+00 5.2403372499655871e+00 1.4069284423190719e+01 -1 0 0
2729 444 1 4.1499999999999998e-01 3.2139573885737853e+00 5.8400811456937189e+00 1.3791786611389291e+01 -1 0 0
2730 444 1 4.1499999999999998e-01 2.3321513582571747e+00 5.4938998787110265e+00 1.4972664190801764e+01 -1 0 0
3421 444 2 -8.2999999999999996e-01 3.3068155589929398e+00 8.6521376271009984e+00 1.0043034146551518e+01 0 3 0
3422 444 1 4.1499999999999998e-01 3.7257698575789675e+00 7.8993282446415618e+00 1.0460151857409592e+01 0 3 0
2531 444 1 4.1499999999999998e-01 7.9604779396931749e+00 5.2703591069763052e+00 1.0343921828156006e+01 0 2 0
2530 444 2 -8.2999999999999996e-01 7.7063036357969885e+00 4.3637699854969592e+00 1.0171515371242750e+01 0 2 0
2532 444 1 4.1499999999999998e-01 7.8110194005742368e+00 4.2609056129434251e+00 9.2256371534591910e+00 0 2 0
221 444 1 4.1499999999999998e-01 9.8002959556019462e+00 5.5702671156531762e+00 1.1897375854681787e+01 -2 3 0
330 444 1 4.1499999999999998e-01 3.8304482550323860e+00 3.6405819363320067e+00 1.3593068331421765e+01 -1 2 0
328 444 2 -8.2999999999999996e-01 4.3740959158871302e+00 2.8768268385721734e+00 1.3399787615699656e+01 -1 2 0
4576 444 2 -8.2999999999999996e-01 6.7267262919292907e+00 3.9731793596054219e+00 1.2543104440925759e+01 -1 3 0
785 444 1 4.1499999999999998e-01 8.8734773500651531e+00 9.8157596258848496e+00 1.0548461890370010e+01 1 -1 0
4578 444 1 4.1499999999999998e-01 7.0279378816439371e+00 4.1292291953215461e+00 1.1648033591723374e+01 -1 3 0
175 444 2 -8.2999999999999996e-01 5.0801366968116106e+00 5.7829815146014480e+00 1.0893488352548603e+01 1 2 0
4577 444 1 4.1499999999999998e-01 6.7249669826026910e+00 4.8394970165572770e+00 1.2950194597894654e+01 -1 3 0
176 444 1 4.1499999999999998e-01 5.8475571684484340e+00 6.1673053422805824e+00 1.0469703498916498e+01 1 2 0
177 444 1 4.1499999999999998e-01 4.9945162872049096e+00 4.9168756221296368e+00 1.0495039390686612e+01 1 2 0
329 444 1 4.1499999999999998e-01 5.1783318593640670e+00 3.2418993529608171e+00 1.3030789208819359e+01 -1 2 0
1329 444 1 4.1499999999999998e-01 7.3286958045744575e+00 7.8474627184477121e+00 9.9049708145198885e+00 1 -4 0
3458 444 1 4.1499999999999998e-01 6.7986040443710625e+00 7.8836642733748548e+00 1.4312721758132586e+01 1 -2 0
3457 444 2 -8.2999999999999996e-01 6.2498830622395705e+00 8.6520880416212140e+00 1.4469764756969999e+01 1 -2 0
3459 444 1 4.1499999999999998e-01 6.8681694722251994e+00 9.3453258577078220e+00 1.4700795861081559e+01 1 -2 0
1327 444 2 -8.2999999999999996e-01 7.4339200935004293e+00 7.0771331105151898e+00 1.0463318973124705e+01 1 -4 0
1328 444 1 4.1499999999999998e-01 8.3579700780543860e+00 7.0860441365347873e+00 1.0712888799894104e+01 1 -4 0
1032 444 1 4.1499999999999998e-01 8.5809744022229353e+00 2.8492615549876055e+00 1.0764927238988497e+01 2 1 0
161 444 1 4.1499999999999998e-01 9.1038380243914130e+00 2.5795267119382288e+00 1.4281552737266512e+01 -1 -1 0
162 444 1 4.1499999999999998e-01 7.8150969826420082e+00 3.3195092271219617e+00 1.3992645223669260e+01 -1 -1 0
4857 444 1 4.1499999999999998e-01 1.1234357530496435e+01 1.0357800572218906e+01 1.3101104853160553e+01 2 0 0
3057 444 1 4.1499999999999998e-01 1.1232469919130690e+01 8.8887785039143949e+00 1.0002181479872284e+01 1 -2 0
160 444 2 -8.2999999999999996e-01 8.3878263808810356e+00 3.0484643413133532e+00 1.4710104729445320e+01 -1 -1 0
5609 444 1 4.1499999999999998e-01 9.5687670980807216e+00 4.8141735577179858e+00 1.4545744495661518e+01 2 -3 0
1188 444 1 4.1499999999999998e-01 3.9954040922731249e+00 9.7922042035733708e-02 1.2153840322450691e+01 0 -7 0
3055 444 2 -8.2999999999999996e-01 1.0431026964964552e+01 8.7913156040686680e+00 1.0516401054403923e+01 1 -2 0
5275 444 2 -8.2999999999999996e-01 2.1731904185878461e+00 9.4671339011689937e-01 1.0580932857742688e+01 2 1 0
4855 444 2 -8.2999999999999996e-01 1.1039294988357616e+01 9.8239405793689460e+00 1.3871284690594988e+01 2 0 0
1187 444 1 4.1499999999999998e-01 3.8540548690014926e+00 1.1204297459945181e+00 1.3261266897959933e+01 0 -7 0
2054 444 1 4.1499999999999998e-01 4.6705889264883576e+00 6.2041899520327464e+00 1.2426450381916739e+01 1 3 0
5608 444 2 -8.2999999999999996e-01 9.5934971751524660e+00 5.4534877818270404e+00 1.3833776984560174e+01 2 -3 0
4856 444 1 4.1499999999999998e-01 1.0109140579734634e+01 9.9753852898554545e+00 1.4038943108598701e+01 2 0 0
3592 444 2 -8.2999999999999996e-01 7.4308332942130413e+00 6.7410003998502530e+00 1.3117764611321068e+01 0 3 0
2472 444 1 4.1499999999999998e-01 1.0671442737818297e+00 4.5377452406135070e+00 1.3654448436461902e+01 0 -3 0
1030 444 2 -8.2999999999999996e-01 9.1535993766224948e+00 2.0822691013520460e+00 1.0757464862663721e+01 2 1 0
3537 444 1 4.1499999999999998e-01 1.0867171842310627e+01 1.8147286937684077e+00 1.1435487574509866e+01 -2 0 0
3593 444 1 4.1499999999999998e-01 7.5849448675938609e+00 6.8750091260352795e+00 1.2182605031045123e+01 0 3 0
3423 444 1 4.1499999999999998e-01 3.2835783335181876e+00 8.4287849201661125e+00 9.1125475517611161e+00 0 3 0
784 444 2 -8.2999999999999996e-01 8.0067037296517949e+00 1.0184732885928250e+01 1.0378771359722325e+01 1 -1 0
1995 444 1 4.1499999999999998e-01 3.9265737181671598e+00 1.1894498773386570e+00 1.0522472153026078e+01 6 1 0
2053 444 2 -8.2999999999999996e-01 4.5895232876421721e+00 6.5385406997159459e+00 1.3319685950791378e+01 1 3 0
3594 444 1 4.1499999999999998e-01 8.2518186811542797e+00 6.3744456117145383e+00 1.3446176146656484e+01 0 3 0
2055 444 1 4.1499999999999998e-01 5.4922873311572351e+00 6.6683574427889729e+00 1.3610196697716878e+01 1 3 0
5180 444 1 4.1499999999999998e-01 1.6796462396920881e+00 9.5494733336579376e+00 1.3592053723952322e+01 1 -2 0
5179 444 2 -8.2999999999999996e-01 1.1382933176430496e+00 9.8314271035319933e+00 1.2854713297227333e+01 1 -2 0
5744 444 1 4.1499999999999998e-01 2.7872645880488239e-01 6.5785078687432383e+00 9.9637761654229404e+00 0 0 0
1031 444 1 4.1499999999999998e-01 9.2743939510040683e+00 1.8819816771403370e+00 9.8292807946771976e+00 2 1 0
5181 444 1 4.1499999999999998e-01 1.7122309126374025e+00 1.0397025520034424e+01 1.2338064636382544e+01 1 -2 0
222 444 1 4.1499999999999998e-01 1.0705863273012891e+01 5.6787102635014195e+00 1.0689036976937492e+01 -2 3 0
5610 444 1 4.1499999999999998e-01 1.0307357193172294e+01 6.0464467794903278e+00 1.4068373936085349e+01 2 -3 0
220 444 2 -8.2999999999999996e-01 1.0013532324103606e+01 6.1423429958285842e+00 1.1160157280139401e+01 -2 3 0
5745 444 1 4.1499999999999998e-01 7.1694069067031252e-01 6.9612508786100777e+00 1.1361406678233724e+01 0 0 0
5277 444 1 4.1499999999999998e-01 1.8356977052376142e+00 1.5540944153661531e+00 9.9225874710350226e+00 2 1 0
1993 444 2 -8.2999999999999996e-01 4.8714881926265248e+00 1.3280073346306052e+00 1.0457887578289235e+01 6 1 0
3056 444 1 4.1499999999999998e-01 1.0346578322703865e+01 7.8476330984181564e+00 1.0652648444214073e+01 1 -2 0
1186 444 2 -8.2999999999999996e-01 3.9496389040127116e+00 1.8069616813018197e-01 1.3106356001883391e+01 0 -7 0
5123 444 1 4.1499999999999998e-01 1.0818934650281548e+01 1.0580507790493566e+01 1.0828161768610949e+01 0 1 0
1972 444 2 -8.2999999999999996e-01 6.1103554780253022e+00 1.0683239541039153e+00 1.4846041749099118e+01 -3 3 0
3091 444 2 -8.2999999999999996e-01 2.9248137756202159e+00 8.7011440377928810e+00 1.4337458788723387e+01 1 2 0
3092 444 1 4.1499999999999998e-01 3.5785239583946931e+00 8.4123164774796653e+00 1.4974227658947049e+01 1 2 0
2629 444 2 -8.2999999999999996e-01 7.5030468386631783e+00 1.1027573135355427e+01 1.4922194071073186e+01 2 0 0
2630 444 1 4.1499999999999998e-01 6.5534941484386486e+00 1.1147725042661881e+01 1.4934238348178711e+01 2 0 0
5276 444 1 4.1499999999999998e-01 1.4117319701644293e+00 7.2740711321155371e-01 1.1117884998099248e+01 2 1 0
5122 444 2 -8.2999999999999996e-01 1.1057330001586250e+01 1.1297647753309041e+01 1.1415622417053521e+01 0 1 0
5211 444 1 4.1499999999999998e-01 3.7497066664127106e+00 1.1236111586991051e+01 1.0715797658766611e+01 -4 -3 0
2470 444 2 -8.2999999999999996e-01 4.5976592614485190e-01 3.8631858326230413e+00 1.3350650923729946e+01 0 -3 0
2471 444 1 4.1499999999999998e-01 9.7640711195931995e-01 3.3292604365074157e+00 1.2747130166065705e+01 0 -3 0
2462 444 1 4.1499999999999998e-01 7.8159717773043234e+00 1.1040573402675198e+01 1.1767234387564951e+01 0 1 0
5210 444 1 4.1499999999999998e-01 2.5493296575231570e+00 1.0322899046140208e+01 1.0585287086599047e+01 -4 -3 0
1973 444 1 4.1499999999999998e-01 6.0296004827962992e+00 1.5295958346544092e+00 1.5680870560522411e+01 -3 3 0
2631 444 1 4.1499999999999998e-01 7.7613738656869202e+00 1.1246973058470536e+01 1.4027005421021430e+01 2 0 0
5209 444 2 -8.2999999999999996e-01 2.8791223846264771e+00 1.1073692340780358e+01 1.1079025953662402e+01 -4 -3 0
1974 444 1 4.1499999999999998e-01 5.4803946482178381e+00 1.5018999968667466e+00 1.4270373844730251e+01 -3 3 0
1457 444 1 4.1499999999999998e-01 1.1290857530575563e+01 8.0281433393352639e+00 1.6062212984060174e+01 -2 -2 0
3093 444 1 4.1499999999999998e-01 3.0708637418093234e+00 8.1430507199998150e+00 1.3573630517150647e+01 1 2 0
1047 444 1 4.1499999999999998e-01 7.1038911828050209e+00 1.3366081643271263e-02 1.4425270500813825e+01 -1 4 0
2226 444 1 4.1499999999999998e-01 4.6247952577932594e+00 3.6300869067067110e+00 1.5908222968090175e+01 2 -1 0
2301 444 1 4.1499999999999998e-01 4.6842948668366143e-02 1.1171175556340973e+01 1.3193863094024696e+01 -4 5 0
4349 444 1 4.1499999999999998e-01 5.8441741310035358e+00 1.0563971978919867e+01 9.8085837768380468e+00 2 -1 0
891 444 1 4.1499999999999998e-01 5.2406594826740776e+00 1.0052677431518203e+01 1.3599980749810243e+01 2 0 0
4348 444 2 -8.2999999999999996e-01 5.3060552388957429e+00 1.1278965308157979e+01 1.0148355151218972e+01 2 -1 0
889 444 2 -8.2999999999999996e-01 5.1415738467735990e+00 1.0954109822722984e+01 1.3293657248081264e+01 2 0 0
743 444 1 4.1499999999999998e-01 6.2134081332625160e+00 2.7596922633898874e-01 1.1063563495266628e+01 0 -2 0
1456 444 2 -8.2999999999999996e-01 1.1188546470420711e+01 7.0766300033185114e+00 1.6081906586745461e+01 -2 -2 0
786 444 1 4.1499999999999998e-01 8.1108752557006820e+00 1.0677748403500937e+01 9.5649433900959071e+00 1 -1 0
890 444 1 4.1499999999999998e-01 5.4560825471597303e+00 1.0936358835522723e+01 1.2389776064133070e+01 2 0 0
1994 444 1 4.1499999999999998e-01 5.0168161379143346e+00 1.5682871216679362e+00 9.5428043225382364e+00 6 1 0
4031 444 1 4.1499999999999998e-01 4.4225228609445395e+00 1.1292304122287518e+01 1.6063209026137940e+01 2 0 0
1493 444 1 4.1499999999999998e-01 2.3366245476568354e-01 1.0874603213451268e+01 1.6723535841876934e+01 -2 3 0
610 444 2 -8.2999999999999996e-01 2.9739070596548056e+00 1.1650466628606484e+00 1.8887862999967048e+01 1 1 0
611 444 1 4.1499999999999998e-01 3.5347695780934227e+00 4.6838459223328882e-01 1.9228930502858162e+01 1 1 0
1375 444 2 -8.2999999999999996e-01 6.0854598899608181e-01 1.4021009569807972e+00 2.0062969634193639e+01 3 2 0
1688 444 1 4.1499999999999998e-01 3.9884713133019772e-01 6.8547662066107451e+00 2.4368405994967478e+01 -2 -1 0
1377 444 1 4.1499999999999998e-01 4.6248021197003913e-01 2.2615412162626893e+00 2.0458265713081463e+01 3 2 0
1247 444 1 4.1499999999999998e-01 4.2772762805123143e+00 1.0255465103653755e+01 1.8717706949791033e+01 0 1 0
5603 444 1 4.1499999999999998e-01 1.0004011790325006e+01 2.9493199107046006e+00 1.6509513281117854e+01 -3 1 0
2079 444 1 4.1499999999999998e-01 1.0244624333744161e+01 5.3591810807136593e+00 2.0647990627422562e+01 0 1 0
1689 444 1 4.1499999999999998e-01 4.0415340135577893e-01 7.4902405845197455e+00 2.2994346601447635e+01 -2 -1 0
5602 444 2 -8.2999999999999996e-01 1.0945617467022329e+01 2.7938953538751261e+00 1.6583364637951224e+01 -3 1 0
5649 444 1 4.1499999999999998e-01 4.8966156528007163e+00 6.7029695467281574e+00 1.6747176477947963e+01 0 1 0
5647 444 2 -8.2999999999999996e-01 4.1786141021963585e+00 7.2832768244335755e+00 1.6494293351013564e+01 0 1 0
3379 444 2 -8.2999999999999996e-01 1.1182924239574884e+01 9.5311890375205603e+00 2.0773963535752266e+01 -4 4 0
5980 444 2 -8.2999999999999996e-01 2.1464458213527919e+00 1.0570270358159917e+01 2.2016934148610780e+01 5 3 0
5273 444 1 4.1499999999999998e-01 7.3749406206268535e+00 5.6776239808118136e+00 1.6433509510521951e+01 3 -1 0
834 444 1 4.1499999999999998e-01 1.4858398254332135e+00 8.8684623779707952e+00 1.9245967563992529e+01 1 -2 0
5955 444 1 4.1499999999999998e-01 8.7919323898933417e+00 4.2933823012176708e-01 1.7464321122561813e+01 -3 3 0
4986 444 1 4.1499999999999998e-01 2.2759201239805469e+00 3.2923119042904658e+00 1.9541647862235738e+01 -3 2 0
4662 444 1 4.1499999999999998e-01 5.6496837156891191e+00 5.4877864778057261e-01 1.8437642805148180e+01 -1 -3 0
1248 444 1 4.1499999999999998e-01 3.3890555870086310e+00 1.0460394556406886e+01 1.9926410121252061e+01 0 1 0
4985 444 1 4.1499999999999998e-01 1.6017012556449302e+00 4.0940849187907045e+00 2.0634572484458769e+01 -3 2 0
1139 444 1 4.1499999999999998e-01 9.4320479389846827e+00 5.2820133825543243e+00 1.7976495471831704e+01 3 -1 0
833 444 1 4.1499999999999998e-01 2.3014039010968270e+00 8.1617772329871894e+00 1.8184201885724043e+01 1 -2 0
5252 444 1 4.1499999999999998e-01 7.5538243840186654e+00 1.6927783902727427e+00 1.7967161007701360e+01 1 3 0
5251 444 2 -8.2999999999999996e-01 8.2431549619216415e+00 2.2029843769448334e+00 1.7542020203972260e+01 1 3 0
3186 444 1 4.1499999999999998e-01 1.0196097105103912e+00 1.5518653977476038e+00 2.4283748876507691e+01 2 -2 0
5648 444 1 4.1499999999999998e-01 3.4072870263113995e+00 6.7167540555792806e+00 1.6475872805176870e+01 0 1 0
5272 444 2 -8.2999999999999996e-01 6.5201168540040637e+00 5.8261718465328363e+00 1.6837790112930342e+01 3 -1 0
4157 444 1 4.1499999999999998e-01 9.2400027915576608e+00 1.2703586787973178e+00 2.1972791082910835e+01 -1 -1 0
4754 444 1 4.1499999999999998e-01 9.3128938946367139e+00 1.0728675074119902e+01 1.7414833117783687e+01 1 0 0
1494 444 1 4.1499999999999998e-01 3.1264918602705721e-01 1.0242614324951628e+01 1.8096942593655680e+01 -2 3 0
3988 444 2 -8.2999999999999996e-01 7.0712720998154532e-01 7.6320685610797705e+00 2.1400026115212388e+01 1 3 0
920 444 1 4.1499999999999998e-01 1.9598000931198640e+00 4.7293225964849048e+00 1.6769078951642783e+01 -1 -2 0
4156 444 2 -8.2999999999999996e-01 9.7690082070322539e+00 9.2738794929653734e-01 2.2693038394869355e+01 -1 -1 0
5274 444 1 4.1499999999999998e-01 6.7219255975029535e+00 6.0935991499771216e+00 1.7734444208092071e+01 3 -1 0
612 444 1 4.1499999999999998e-01 2.1977636293954617e+00 1.1440032883715625e+00 1.9447675753598094e+01 1 1 0
1198 444 2 -8.2999999999999996e-01 1.8602486752047078e+00 2.9623391561900889e+00 1.7297258736012992e+01 2 4 0
5253 444 1 4.1499999999999998e-01 7.8605334615779068e+00 2.4751196730866538e+00 1.6707889015830673e+01 1 3 0
1687 444 2 -8.2999999999999996e-01 1.7194610161804713e-01 7.6620906746520632e+00 2.3906913942371116e+01 -2 -1 0
1027 444 2 -8.2999999999999996e-01 5.2705842019860949e+00 3.2571117258429809e+00 1.9604796498672673e+01 1 0 0
921 444 1 4.1499999999999998e-01 1.1229420745182344e+00 5.9676307025362059e+00 1.7010236086971975e+01 -1 -2 0
1246 444 2 -8.2999999999999996e-01 4.2287301154235974e+00 1.0724785272177103e+01 1.9550542301691792e+01 0 1 0
3990 444 1 4.1499999999999998e-01 1.2394609508157428e+00 8.0584402583157981e+00 2.0728416156965267e+01 1 3 0
4434 444 1 4.1499999999999998e-01 1.1016357877240817e+00 1.0657799648968055e+01 2.0572822944945461e+01 2 1 0
5390 444 1 4.1499999999999998e-01 3.5141527006572337e+00 5.2619636512553152e+00 1.9849277763387796e+01 1 1 0
4539 444 1 4.1499999999999998e-01 5.4457351118472062e+00 9.1028444574495797e+00 1.6440305503905375e+01 2 0 0
3983 444 1 4.1499999999999998e-01 6.1228877900155618e+00 8.7892389769888410e+00 2.2029441841150586e+01 -1 -4 0
2224 444 2 -8.2999999999999996e-01 5.2864696272851122e+00 3.3127791326595180e+00 1.6522824270113084e+01 2 -1 0
2225 444 1 4.1499999999999998e-01 5.7868218542780356e+00 4.0932978777693867e+00 1.6760880501609307e+01 2 -1 0
4538 444 1 4.1499999999999998e-01 6.0990106098893584e+00 1.0167503653982088e+01 1.7295657592195241e+01 2 0 0
4537 444 2 -8.2999999999999996e-01 5.2587764883709625e+00 9.9133007450196988e+00 1.6914056065256844e+01 2 0 0
3982 444 2 -8.2999999999999996e-01 5.4117283157103255e+00 8.8729951310265065e+00 2.1394248460111584e+01 -1 -4 0
3984 444 1 4.1499999999999998e-01 5.3614180465088381e+00 9.8114684215858503e+00 2.1212675845367468e+01 -1 -4 0
1189 444 2 -8.2999999999999996e-01 7.3490754436672860e+00 1.2289042276832347e+00 2.1323528765816604e+01 4 1 0
1191 444 1 4.1499999999999998e-01 6.5580341826875710e+00 1.3719799549994580e+00 2.0803898766392358e+01 4 1 0
5391 444 1 4.1499999999999998e-01 3.2227416223984227e+00 6.7230598791241993e+00 1.9580627624218174e+01 1 1 0
1190 444 1 4.1499999999999998e-01 8.0688121243017363e+00 1.3637424961932079e+00 2.0707062405017794e+01 4 1 0
3027 444 1 4.1499999999999998e-01 6.3479860709732314e+00 7.5096822138150490e+00 2.0413812724423170e+01 1 -1 0
5389 444 2 -8.2999999999999996e-01 3.8967720800592782e+00 6.0526534646943926e+00 1.9468956451626575e+01 1 1 0
2382 444 1 4.1499999999999998e-01 9.0752716574376020e+00 2.6211351582981233e+00 1.9073620437394279e+01 -2 -1 0
2380 444 2 -8.2999999999999996e-01 9.1508774285487942e+00 2.5940366111098334e+00 2.0027445427732960e+01 -2 -1 0
2381 444 1 4.1499999999999998e-01 9.0210142643821012e+00 3.5010623235675062e+00 2.0304343839171288e+01 -2 -1 0
202 444 2 -8.2999999999999996e-01 7.6088090039074139e+00 9.1200797490084646e+00 1.8191158388008684e+01 5 1 0
204 444 1 4.1499999999999998e-01 8.5551971235344073e+00 8.9861746924836492e+00 1.8242656442615065e+01 5 1 0
919 444 2 -8.2999999999999996e-01 1.9619136322234658e+00 5.6791901660573414e+00 1.6650847093545643e+01 -1 -2 0
3025 444 2 -8.2999999999999996e-01 6.3119485360866161e+00 6.7800257814981650e+00 1.9795318873998728e+01 1 -1 0
3026 444 1 4.1499999999999998e-01 5.3801492864183222e+00 6.5737902809591331e+00 1.9721502630105686e+01 1 -1 0
1199 444 1 4.1499999999999998e-01 2.4158797587976486e+00 2.3160888605204177e+00 1.7732996691672064e+01 2 4 0
368 444 1 4.1499999999999998e-01 9.8701493955216186e+00 8.5557270938370635e+00 2.1277153087126521e+01 -6 0 0
367 444 2 -8.2999999999999996e-01 9.3610435939121075e+00 7.9791955011171680e+00 2.1846937365459723e+01 -6 0 0
1028 444 1 4.1499999999999998e-01 5.2010350507910195e+00 3.0842098707592513e+00 1.8665914171865463e+01 1 0 0
4158 444 1 4.1499999999999998e-01 9.9815092398117198e+00 1.6963004845439698e+00 2.3222045615862271e+01 -1 -1 0
4984 444 2 -8.2999999999999996e-01 2.4595587494852151e+00 3.7894637672984000e+00 2.0338735820520274e+01 -3 2 0
5856 444 1 4.1499999999999998e-01 6.2430535107973784e+00 3.8494990119052810e+00 2.0801614434582007e+01 3 0 0
203 444 1 4.1499999999999998e-01 7.2330821757444559e+00 8.3274603650696939e+00 1.8574324053787233e+01 5 1 0
1001 444 1 4.1499999999999998e-01 1.1154711320854030e+01 3.8146268347014951e+00 2.4023076446761756e+01 2 1 0
532 444 2 -8.2999999999999996e-01 2.1008641090677829e+00 5.0725071432642466e-01 2.2894531273942224e+01 2 3 0
534 444 1 4.1499999999999998e-01 1.8154219466352686e+00 6.3681786791963491e-01 2.1990115909395854e+01 2 3 0
1029 444 1 4.1499999999999998e-01 4.3642543630431705e+00 3.2854641645296887e+00 1.9911381976036925e+01 1 0 0
5855 444 1 4.1499999999999998e-01 6.8983447627367509e+00 5.2127268330932939e+00 2.0865633428920251e+01 3 0 0
5854 444 2 -8.2999999999999996e-01 6.5421361861452043e+00 4.5173693633794461e+00 2.1418648151226162e+01 3 0 0
1718 444 1 4.1499999999999998e-01 3.8259511777522439e+00 8.2727395953664917e+00 2.2291604843170880e+01 2 1 0
2748 444 1 4.1499999999999998e-01 4.4621422502136774e+00 5.1524827954971739e+00 2.2302464871550587e+01 0 -1 0
1194 444 1 4.1499999999999998e-01 7.9677245376583237e+00 8.5730174877843783e+00 2.2840580098510916e+01 1 -1 0
5591 444 1 4.1499999999999998e-01 7.9559717338589389e+00 5.0229309703446434e+00 2.2955611948798879e+01 -1 -1 0
1200 444 1 4.1499999999999998e-01 1.0917542093420460e+00 2.4665475567729875e+00 1.7014700624997385e+01 2 4 0
2747 444 1 4.1499999999999998e-01 3.7601433493492467e+00 6.2918775643817888e+00 2.3010188465595302e+01 0 -1 0
1717 444 2 -8.2999999999999996e-01 3.1512589229730774e+00 7.9079901795428675e+00 2.2864300930099045e+01 2 1 0
1138 444 2 -8.2999999999999996e-01 9.0962183080794698e+00 5.6252167070066665e+00 1.7148448525001527e+01 3 -1 0
2078 444 1 4.1499999999999998e-01 8.9901514528658275e+00 6.1116098860421948e+00 2.1037918349289335e+01 0 1 0
5249 444 1 4.1499999999999998e-01 1.0137362163624969e+01 6.2775507343008821e+00 2.3984037976956582e+01 2 0 0
1344 444 1 4.1499999999999998e-01 1.0936502168390854e+01 9.4729836259633302e+00 1.7675538555926462e+01 0 0 0
5248 444 2 -8.2999999999999996e-01 1.1011662914016107e+01 6.6061941970899314e+00 2.3774696956257316e+01 2 0 0
1342 444 2 -8.2999999999999996e-01 1.0209592670224740e+01 9.2497399547176613e+00 1.8256913333513424e+01 0 0 0
1140 444 1 4.1499999999999998e-01 9.6010496627573456e+00 6.4243360657453854e+00 1.6997499857260696e+01 3 -1 0
2077 444 2 -8.2999999999999996e-01 9.2897617370058896e+00 5.2924692498802983e+00 2.0643615839856437e+01 0 1 0
5590 444 2 -8.2999999999999996e-01 8.6811190896269999e+00 5.0442408364255993e+00 2.3580063548544285e+01 -1 -1 0
1000 444 2 -8.2999999999999996e-01 1.0420612645201595e+01 3.3557419281938028e+00 2.3614719271265098e+01 2 1 0
1002 444 1 4.1499999999999998e-01 9.7447506963354460e+00 4.0260307400075606e+00 2.3513945412718595e+01 2 1 0
5981 444 1 4.1499999999999998e-01 2.0365456348387463e+00 1.0000488285294422e+01 2.2778184542390232e+01 5 3 0
2927 444 1 4.1499999999999998e-01 7.2611972115786472e+00 1.1055944202511046e+01 1.9667374423835369e+01 8 1 0
832 444 2 -8.2999999999999996e-01 2.2210462681138989e+00 8.2661483288252100e+00 1.9132295435537031e+01 1 -2 0
1343 444 1 4.1499999999999998e-01 1.0540937028221187e+01 9.4318826023186997e+00 1.9136269234806182e+01 0 0 0
1376 444 1 4.1499999999999998e-01 4.3958468502012238e-03 1.3733694460307657e+00 1.9321074155669482e+01 3 2 0