LAMMPS data file via write_data, version 11 Aug 2017, timestep = 500000

7168 atoms
4 atom types
4000 bonds
1 bond types
2000 angles
1 angle types

0.0000000000000000e+00 4.5679949999999998e+01 xlo xhi
0.0000000000000000e+00 4.6885919999999999e+01 ylo yhi
0.0000000000000000e+00 6.5000000000000000e+01 zlo zhi

Masses

1 1.0079
2 15.9994
3 22.9898
4 107.868

Bond Coeffs # harmonic

1 450 0.9572

Angle Coeffs # harmonic

1 55 104.52

Atoms # full

6017 444 4 0.0000000000000000e+00 1.6907200000000000e+00 0.0000000000000000e+00 0.0000000000000000e+00 0 0 0
6018 444 4 0.0000000000000000e+00 4.2285000000000004e+00 1.4651900000000000e+00 0.0000000000000000e+00 0 0 0
6019 444 4 -5.5559999999999998e-02 1.6907700000000001e+00 0.0000000000000000e+00 7.1781499999999996e+00 0 0 0
6020 444 4 -5.5559999999999998e-02 4.2285500000000003e+00 1.4651900000000000e+00 7.1781499999999996e+00 0 0 0
6021 444 4 0.0000000000000000e+00 2.5366499999999998e+00 1.4651900000000000e+00 2.3926400000000001e+00 0 0 0
6022 444 4 0.0000000000000000e+00 5.0744199999999999e+00 0.0000000000000000e+00 2.3926400000000001e+00 0 0 0
6023 444 4 0.0000000000000000e+00 8.4509000000000001e-01 1.4651900000000000e+00 4.7824200000000001e+00 0 0 0
6024 444 4 0.0000000000000000e+00 3.3828600000000000e+00 0.0000000000000000e+00 4.7824499999999999e+00 0 0 0
6025 444 4 0.0000000000000000e+00 1.6907200000000000e+00 2.9303699999999999e+00 0.0000000000000000e+00 0 0 0
6026 444 4 0.0000000000000000e+00 4.2285000000000004e+00 4.3955599999999997e+00 0.0000000000000000e+00 0 0 0
6027 444 4 -5.5559999999999998e-02 1.6907700000000001e+00 2.9303699999999999e+00 7.1781899999999998e+00 0 0 0
6028 444 4 -5.5559999999999998e-02 4.2285500000000003e+00 4.3955599999999997e+00 7.1781600000000001e+00 0 0 0
6029 444 4 0.0000000000000000e+00 2.5366499999999998e+00 4.3955599999999997e+00 2.3926400000000001e+00 0 0 0
6030 444 4 0.0000000000000000e+00 5.0744199999999999e+00 2.9303699999999999e+00 2.3926400000000001e+00 0 0 0
6031 444 4 0.0000000000000000e+00 8.4509000000000001e-01 4.3955599999999997e+00 4.7824499999999999e+00 0 0 0
6032 444 4 0.0000000000000000e+00 3.3828700000000000e+00 2.9303699999999999e+00 4.7824400000000002e+00 0 0 0
6033 444 4 0.0000000000000000e+00 1.6907200000000000e+00 5.8607399999999998e+00 0.0000000000000000e+00 0 0 0
6034 444 4 0.0000000000000000e+00 4.2285000000000004e+00 7.3259299999999996e+00 0.0000000000000000e+00 0 0 0
6035 444 4 -5.5559999999999998e-02 1.6907700000000001e+00 5.8607399999999998e+00 7.1781499999999996e+00 0 0 0
6036 444 4 -5.5559999999999998e-02 4.2285500000000003e+00 7.3259299999999996e+00 7.1781499999999996e+00 0 0 0
6037 444 4 0.0000000000000000e+00 2.5366499999999998e+00 7.3259299999999996e+00 2.3926400000000001e+00 0 0 0
6038 444 4 0.0000000000000000e+00 5.0744199999999999e+00 5.8607399999999998e+00 2.3926400000000001e+00 0 0 0
6039 444 4 0.0000000000000000e+00 8.4509000000000001e-01 7.3259299999999996e+00 4.7824200000000001e+00 0 0 0
6040 444 4 0.0000000000000000e+00 3.3828600000000000e+00 5.8607399999999998e+00 4.7824499999999999e+00 0 0 0
6145 444 4 0.0000000000000000e+00 6.7662699999999996e+00 0.0000000000000000e+00 0.0000000000000000e+00 0 0 0
6147 444 4 -5.5559999999999998e-02 6.7663200000000003e+00 0.0000000000000000e+00 7.1781499999999996e+00 0 0 0
6149 444 4 0.0000000000000000e+00 7.6121999999999996e+00 1.4651900000000000e+00 2.3926400000000001e+00 0 0 0
6151 444 4 0.0000000000000000e+00 5.9206399999999997e+00 1.4651900000000000e+00 4.7824200000000001e+00 0 0 0
6153 444 4 0.0000000000000000e+00 6.7662699999999996e+00 2.9303699999999999e+00 0.0000000000000000e+00 0 0 0
6155 444 4 -5.5559999999999998e-02 6.7663200000000003e+00 2.9303699999999999e+00 7.1781899999999998e+00 0 0 0
6157 444 4 0.0000000000000000e+00 7.6121999999999996e+00 4.3955599999999997e+00 2.3926400000000001e+00 0 0 0
6159 444 4 0.0000000000000000e+00 5.9206399999999997e+00 4.3955599999999997e+00 4.7824499999999999e+00 0 0 0
6161 444 4 0.0000000000000000e+00 6.7662699999999996e+00 5.8607399999999998e+00 0.0000000000000000e+00 0 0 0
6163 444 4 -5.5559999999999998e-02 6.7663200000000003e+00 5.8607399999999998e+00 7.1781499999999996e+00 0 0 0
6165 444 4 0.0000000000000000e+00 7.6121999999999996e+00 7.3259299999999996e+00 2.3926400000000001e+00 0 0 0
6167 444 4 0.0000000000000000e+00 5.9206399999999997e+00 7.3259299999999996e+00 4.7824200000000001e+00 0 0 0
6146 444 4 0.0000000000000000e+00 9.3040500000000002e+00 1.4651900000000000e+00 0.0000000000000000e+00 0 0 0
6148 444 4 -5.5559999999999998e-02 9.3041000000000000e+00 1.4651900000000000e+00 7.1781499999999996e+00 0 0 0
6150 444 4 0.0000000000000000e+00 1.0149970000000000e+01 0.0000000000000000e+00 2.3926400000000001e+00 0 0 0
6152 444 4 0.0000000000000000e+00 8.4584100000000007e+00 0.0000000000000000e+00 4.7824499999999999e+00 0 0 0
6154 444 4 0.0000000000000000e+00 9.3040500000000002e+00 4.3955599999999997e+00 0.0000000000000000e+00 0 0 0
6156 444 4 -5.5559999999999998e-02 9.3041000000000000e+00 4.3955599999999997e+00 7.1781600000000001e+00 0 0 0
6158 444 4 0.0000000000000000e+00 1.0149970000000000e+01 2.9303699999999999e+00 2.3926400000000001e+00 0 0 0
6160 444 4 0.0000000000000000e+00 8.4584200000000003e+00 2.9303699999999999e+00 4.7824400000000002e+00 0 0 0
6162 444 4 0.0000000000000000e+00 9.3040500000000002e+00 7.3259299999999996e+00 0.0000000000000000e+00 0 0 0
6164 444 4 -5.5559999999999998e-02 9.3041000000000000e+00 7.3259299999999996e+00 7.1781499999999996e+00 0 0 0
6166 444 4 0.0000000000000000e+00 1.0149970000000000e+01 5.8607399999999998e+00 2.3926400000000001e+00 0 0 0
6168 444 4 0.0000000000000000e+00 8.4584100000000007e+00 5.8607399999999998e+00 4.7824499999999999e+00 0 0 0
6279 444 4 0.0000000000000000e+00 1.0996190000000000e+01 1.4651900000000000e+00 4.7824200000000001e+00 0 0 0
6287 444 4 0.0000000000000000e+00 1.0996190000000000e+01 4.3955599999999997e+00 4.7824499999999999e+00 0 0 0
6295 444 4 0.0000000000000000e+00 1.0996190000000000e+01 7.3259299999999996e+00 4.7824200000000001e+00 0 0 0
2135 444 1 4.1499999999999998e-01 2.0651351158053544e+00 7.3773314562010901e+00 1.0882666527939218e+01 -1 2 0
3844 444 2 -8.2999999999999996e-01 8.1396346060838702e+00 5.8001846098625878e+00 1.3229701173002006e+01 1 -1 0
3846 444 1 4.1499999999999998e-01 8.3321917404512860e+00 6.0782509856935105e+00 1.2334249676454830e+01 1 -1 0
3845 444 1 4.1499999999999998e-01 8.5138182628996084e+00 4.9214894830550966e+00 1.3293837955192426e+01 1 -1 0
921 444 1 4.1499999999999998e-01 8.3413377888757978e-01 1.3822119487648687e+00 1.1851878751741257e+01 -4 -2 0
4370 444 1 4.1499999999999998e-01 3.3266904787147991e+00 1.7327921299818601e+00 1.2841986806116873e+01 3 4 0
4369 444 2 -8.2999999999999996e-01 3.3805186912644429e+00 2.4533738930850610e+00 1.2214215499218350e+01 3 4 0
919 444 2 -8.2999999999999996e-01 1.3088868373368574e+00 1.3688499269964709e+00 1.1020817641214334e+01 -4 -2 0
4371 444 1 4.1499999999999998e-01 2.5997568107491968e+00 2.3556318198730124e+00 1.1669155408687514e+01 3 4 0
3464 444 1 4.1499999999999998e-01 7.3945297950227094e+00 2.1327501041550301e+00 1.3559495538470504e+01 -3 -1 0
5126 444 1 4.1499999999999998e-01 7.4700877597624027e-01 3.8367390168879369e+00 9.0417033924579417e+00 1 2 0
5127 444 1 4.1499999999999998e-01 7.6466158790537497e-01 3.2972525399885528e+00 1.0456107054144233e+01 1 2 0
920 444 1 4.1499999999999998e-01 7.4851389493351494e-01 8.6288243462232495e-01 1.0432420760241872e+01 -4 -2 0
4463 444 1 4.1499999999999998e-01 1.9149618993417707e+00 6.3505291253048810e+00 1.4039710326123590e+01 4 -2 0
4550 444 1 4.1499999999999998e-01 1.0408741111168345e+01 3.3762179840026634e+00 9.3572988484481616e+00 -1 4 0
4462 444 2 -8.2999999999999996e-01 1.6999176698839424e+00 7.1285209164886751e+00 1.3525203417417526e+01 4 -2 0
3318 444 1 4.1499999999999998e-01 5.9853117810547980e+00 4.4882447440864244e+00 1.0270572186243996e+01 -5 -1 0
3316 444 2 -8.2999999999999996e-01 6.9262033493725177e+00 4.6044338781422871e+00 1.0402689357569885e+01 -5 -1 0
4542 444 1 4.1499999999999998e-01 5.8100232595640087e+00 2.1520232886224546e+00 1.2011371999112061e+01 0 -1 0
5646 444 1 4.1499999999999998e-01 8.1883687785662573e-02 6.5890972496052740e+00 1.5874811891670795e+01 4 -1 0
4464 444 1 4.1499999999999998e-01 1.4404664280971418e+00 6.7863296924821075e+00 1.2669736730607775e+01 4 -2 0
4540 444 2 -8.2999999999999996e-01 6.2993657843769268e+00 2.7009285905872220e+00 1.2624135180543631e+01 0 -1 0
3406 444 2 -8.2999999999999996e-01 9.7915952589306663e+00 6.4193004792004702e+00 1.0876880603595884e+01 1 2 0
818 444 1 4.1499999999999998e-01 7.1249243541596685e-01 5.4568938353779801e+00 1.0868185676618257e+01 0 0 0
4730 444 1 4.1499999999999998e-01 4.9082439586952535e+00 2.7974597797035292e+00 1.4175191071009129e+01 -4 -1 0
1975 444 2 -8.2999999999999996e-01 4.3139176542691837e+00 4.6378577058310686e+00 1.0508011848470902e+01 -2 0 0
4549 444 2 -8.2999999999999996e-01 1.0730056702090760e+01 3.9871422577384794e+00 1.0020442572635622e+01 -1 4 0
1977 444 1 4.1499999999999998e-01 4.0696460838968864e+00 4.0554861460925977e+00 1.1227321889194169e+01 -2 0 0
3317 444 1 4.1499999999999998e-01 7.2613674197106466e+00 4.8484240263469340e+00 9.5399231137769576e+00 -5 -1 0
4541 444 1 4.1499999999999998e-01 6.4809672858597605e+00 3.5034759239676032e+00 1.2135084702784457e+01 0 -1 0
988 444 2 -8.2999999999999996e-01 2.8032736682103461e+00 5.7907825698750925e-01 1.4812776174790384e+01 0 3 0
4731 444 1 4.1499999999999998e-01 3.9002083906564913e+00 1.9213120419520731e+00 1.4888019615809425e+01 -4 -1 0
3075 444 1 4.1499999999999998e-01 3.3329537343690512e+00 5.5367744499734837e+00 1.5634630042277701e+01 -1 -1 0
4729 444 2 -8.2999999999999996e-01 4.3435698752378782e+00 2.7675525798759879e+00 1.4947512554725266e+01 -4 -1 0
3073 444 2 -8.2999999999999996e-01 2.8336168611795940e+00 4.9654167204888795e+00 1.5051153074163160e+01 -1 -1 0
3074 444 1 4.1499999999999998e-01 3.3718554751267233e+00 4.1783016267326047e+00 1.4967596303158855e+01 -1 -1 0
4376 444 1 4.1499999999999998e-01 9.1411707681327332e+00 2.9320548738822011e-01 1.0812408709580090e+01 -2 -4 0
989 444 1 4.1499999999999998e-01 2.0166923473065541e+00 8.7096150590202159e-01 1.4351987286457341e+01 0 3 0
1976 444 1 4.1499999999999998e-01 3.5040464318144906e+00 4.7601611950398004e+00 1.0012651029782223e+01 -2 0 0
1129 444 2 -8.2999999999999996e-01 9.1635537117990520e+00 7.1491794186493101e+00 1.5476702958078661e+01 3 0 0
1130 444 1 4.1499999999999998e-01 8.7543913259788209e+00 6.7199063206198746e+00 1.4725342497752566e+01 3 0 0
1131 444 1 4.1499999999999998e-01 9.6185427521459488e+00 6.4442301711489893e+00 1.5937423414949249e+01 3 0 0
2072 444 1 4.1499999999999998e-01 4.6183460833962497e+00 1.6608720208601400e+00 9.9412028966051817e+00 -5 -4 0
2425 444 2 -8.2999999999999996e-01 1.0195566582280568e+01 7.9204205563056584e-01 1.5288234015878700e+01 -2 2 0
3026 444 1 4.1499999999999998e-01 6.5809595598884139e+00 4.7836532934334892e+00 1.5739559512961195e+01 -1 2 0
3463 444 2 -8.2999999999999996e-01 8.2706100979919928e+00 1.8934230956017486e+00 1.3861882203474543e+01 -3 -1 0
3407 444 1 4.1499999999999998e-01 9.7353931131400966e+00 5.5372566786666235e+00 1.0509357908124018e+01 1 2 0
620 444 1 4.1499999999999998e-01 4.7361700178229871e+00 6.4766753944092885e+00 1.2842098850854484e+01 3 2 0
619 444 2 -8.2999999999999996e-01 5.3691783365447661e+00 6.8554144242380728e+00 1.3452089884029615e+01 3 2 0
3408 444 1 4.1499999999999998e-01 1.0596282275363150e+01 6.7825517266933462e+00 1.0507069809707998e+01 1 2 0
3465 444 1 4.1499999999999998e-01 8.6907213631542337e+00 1.5030943836993886e+00 1.3095473765275919e+01 -3 -1 0
2071 444 2 -8.2999999999999996e-01 5.4952353046491620e+00 1.4374392052063880e+00 1.0253252609005969e+01 -5 -4 0
4228 444 2 -8.2999999999999996e-01 8.4368193033554686e+00 3.2649988160964907e+00 1.6213452577639448e+01 4 -3 0
4229 444 1 4.1499999999999998e-01 8.2172269177369941e+00 2.7089361710700257e+00 1.5465919124691620e+01 4 -3 0
2073 444 1 4.1499999999999998e-01 5.9687654428152461e+00 1.1683918898849543e+00 9.4660965301807938e+00 -5 -4 0
2427 444 1 4.1499999999999998e-01 9.6054486987761116e+00 1.2426652176202548e+00 1.4684137245200869e+01 -2 2 0
4375 444 2 -8.2999999999999996e-01 9.3362207054477704e+00 5.4859851788717895e-01 1.1714052833307580e+01 -2 -4 0
3027 444 1 4.1499999999999998e-01 6.1332441753282287e+00 5.9684435837297656e+00 1.4910271834557594e+01 -1 2 0
2426 444 1 4.1499999999999998e-01 1.0323023916413128e+01 1.4119203282835551e+00 1.6006383233176631e+01 -2 2 0
3946 444 2 -8.2999999999999996e-01 2.7795694665598863e-01 1.2477265794755903e+00 1.3639939036172796e+01 3 4 0
2134 444 2 -8.2999999999999996e-01 2.9844673087043811e+00 7.4391601377580541e+00 1.0623364059281894e+01 -1 2 0
5125 444 2 -8.2999999999999996e-01 5.4701422748747219e-01 4.0775857794635435e+00 9.9462622693515748e+00 1 2 0
817 444 2 -8.2999999999999996e-01 5.5488479632009235e-01 6.3348690951288633e+00 1.1215390447784515e+01 0 0 0
3025 444 2 -8.2999999999999996e-01 6.1735879839807239e+00 5.6468939629086981e+00 1.5810943908267635e+01 -1 2 0
601 444 2 -8.2999999999999996e-01 1.1340075281377935e+01 3.2304716064801431e+00 1.2654474240838891e+01 1 -6 0
5228 444 1 4.1499999999999998e-01 6.8347692534661304e+00 6.7290741176573752e+00 1.0725229798002308e+01 -4 6 0
5229 444 1 4.1499999999999998e-01 8.0377810039446302e+00 7.4796716892038893e+00 1.0194889264374734e+01 -4 6 0
4377 444 1 4.1499999999999998e-01 1.0275572266811524e+01 7.3258648215921551e-01 1.1713504187769422e+01 -2 -4 0
5227 444 2 -8.2999999999999996e-01 7.1300634946012913e+00 7.6037183304506595e+00 1.0472186338724802e+01 -4 6 0
2157 444 1 4.1499999999999998e-01 1.1047146745115873e+01 4.6781739423263042e+00 1.6158458134698595e+01 0 2 0
603 444 1 4.1499999999999998e-01 1.0746015161836237e+01 3.1730725647150115e+00 1.1906123013890214e+01 1 -6 0
621 444 1 4.1499999999999998e-01 6.2069879967421757e+00 6.4667789619084193e+00 1.3200555963555720e+01 3 2 0
2136 444 1 4.1499999999999998e-01 2.9569805297468541e+00 7.6388526928506231e+00 9.6876294313218523e+00 -1 2 0
5706 444 1 4.1499999999999998e-01 5.8581069134366865e+00 1.9470392443287210e-01 1.1403739789153168e+01 -3 3 0
4774 444 2 -8.2999999999999996e-01 2.7495554533066122e+00 5.1894012248194155e-01 2.2229415612711730e+01 -6 3 0
4776 444 1 4.1499999999999998e-01 2.1274375533335212e+00 1.1425266194015471e+00 2.1854794422069450e+01 -6 3 0
2291 444 1 4.1499999999999998e-01 1.0044166164771831e+01 2.5337433717060622e+00 1.8127577894469653e+01 0 2 0
2900 444 1 4.1499999999999998e-01 7.7103566386357345e+00 7.7603828094197906e+00 1.7514488778400228e+01 1 -2 0
888 444 1 4.1499999999999998e-01 8.1574725376186947e+00 3.5772584242470795e-01 1.6276672899637671e+01 -3 2 0
4816 444 2 -8.2999999999999996e-01 1.5499061575330858e-01 1.4539449990395410e+00 2.1609259629801944e+01 2 -2 0
2899 444 2 -8.2999999999999996e-01 6.8814137810915339e+00 7.2832325853369992e+00 1.7552084152332817e+01 1 -2 0
512 444 1 4.1499999999999998e-01 1.0478728186756125e+01 8.7708262265111372e-02 1.8728426356250598e+01 3 -3 0
4547 444 1 4.1499999999999998e-01 9.8835346134308182e+00 6.0408725751977661e+00 1.8072442942308783e+01 2 -1 0
5586 444 1 4.1499999999999998e-01 1.0856524081983220e+01 5.7835395504101763e+00 2.1855862089541731e+01 1 0 0
5899 444 2 -8.2999999999999996e-01 9.0122093183106877e-01 3.4981181904442216e+00 2.3268064219118763e+01 -2 2 0
2261 444 1 4.1499999999999998e-01 1.1417229432144214e+01 4.1431197725801736e+00 2.4174682881539116e+01 1 0 0
1505 444 1 4.1499999999999998e-01 1.5240130908284641e+00 9.6477665093767617e-01 1.7643533003577311e+01 3 -3 0
4059 444 1 4.1499999999999998e-01 5.6394229569577208e+00 2.6182734641497145e+00 1.7888348496315476e+01 -1 1 0
4057 444 2 -8.2999999999999996e-01 6.5044824081694808e+00 2.4160772224178571e+00 1.8244748021048249e+01 -1 1 0
1484 444 1 4.1499999999999998e-01 5.3758707235399070e+00 8.1454444600461950e-01 2.4026959938582877e+01 3 -1 0
5585 444 1 4.1499999999999998e-01 9.4626897142342994e+00 5.7005113449944167e+00 2.2440863771218229e+01 1 0 0
1568 444 1 4.1499999999999998e-01 1.7318596393857413e+00 6.8072185745850522e+00 1.6943187922398639e+01 0 1 0
1506 444 1 4.1499999999999998e-01 2.2022330847997997e+00 5.9960723596169307e-01 1.6340243309775616e+01 3 -3 0
4230 444 1 4.1499999999999998e-01 7.8912527566262005e+00 2.9342620070290977e+00 1.6927036868610546e+01 4 -3 0
1504 444 2 -8.2999999999999996e-01 2.3841698104577791e+00 7.9486943517416286e-01 1.7259483919420482e+01 3 -3 0
4548 444 1 4.1499999999999998e-01 1.0132406021171008e+01 6.2656771724417544e+00 1.9548729414403820e+01 2 -1 0
480 444 1 4.1499999999999998e-01 7.8688937050481949e+00 6.5359342847535071e+00 2.1022873790303155e+01 6 -2 0
479 444 1 4.1499999999999998e-01 7.1660158491028501e+00 6.7465486547890281e+00 1.9698676117217868e+01 6 -2 0
5820 444 1 4.1499999999999998e-01 1.0671306278055392e+01 2.1585885271382543e+00 2.1683284509968818e+01 -1 -1 0
91 444 2 -8.2999999999999996e-01 2.0216471132768485e+00 4.7762738856145805e+00 1.8912113374213355e+01 -2 1 0
912 444 1 4.1499999999999998e-01 4.1775030956268955e+00 3.0431719832818085e+00 1.6660067554616113e+01 0 -2 0
910 444 2 -8.2999999999999996e-01 4.0037541073033811e+00 2.8078431882405357e+00 1.7571474914307565e+01 0 -2 0
911 444 1 4.1499999999999998e-01 3.3658801911829577e+00 2.0961510046640868e+00 1.7518155242573457e+01 0 -2 0
4458 444 1 4.1499999999999998e-01 6.4402723179390464e-01 4.0672437470320855e+00 1.9540366322011309e+01 -3 -1 0
5580 444 1 4.1499999999999998e-01 7.8637256805574243e+00 3.6581705252920664e+00 1.8905051971614824e+01 -3 -2 0
5578 444 2 -8.2999999999999996e-01 8.6784531215542327e+00 3.8426776742390913e+00 1.9372394036024222e+01 -3 -2 0
5579 444 1 4.1499999999999998e-01 8.6330658762936814e+00 4.7772892816038679e+00 1.9574069222735410e+01 -3 -2 0
1999 444 2 -8.2999999999999996e-01 3.5669780553165359e-01 7.3433148773614860e+00 2.4334629001045567e+01 1 5 0
2093 444 1 4.1499999999999998e-01 9.2972900736131603e+00 3.2964839846025442e+00 2.3627701755916153e+01 3 5 0
93 444 1 4.1499999999999998e-01 2.6921068576356308e+00 4.2164333946741879e+00 1.8520584621935569e+01 -2 1 0
92 444 1 4.1499999999999998e-01 2.5146386927512565e+00 5.4631688272044974e+00 1.9360853204679444e+01 -2 1 0
4076 444 1 4.1499999999999998e-01 7.6000529209183840e+00 2.4967633378055574e+00 2.1967577261812117e+01 3 0 0
4546 444 2 -8.2999999999999996e-01 9.7222895021427380e+00 6.6639299967753596e+00 1.8780985131027030e+01 2 -1 0
4075 444 2 -8.2999999999999996e-01 8.0247594763843448e+00 2.0343236971951009e+00 2.2690076967104563e+01 3 0 0
5818 444 2 -8.2999999999999996e-01 1.0793076893308916e+01 2.5200119628236983e+00 2.0805345501343020e+01 -1 -1 0
2938 444 2 -8.2999999999999996e-01 4.5231255493802216e+00 5.5224768145323742e+00 2.2778475502720458e+01 3 0 0
2940 444 1 4.1499999999999998e-01 3.9696353922855914e+00 5.6710820676419349e+00 2.3545155051140750e+01 3 0 0
2092 444 2 -8.2999999999999996e-01 9.7215372155500415e+00 4.0247600172670834e+00 2.4081419849440476e+01 3 5 0
3635 444 1 4.1499999999999998e-01 1.6963763016590794e+00 4.5954043369718809e+00 2.4232785611923838e+01 -2 0 0
5819 444 1 4.1499999999999998e-01 9.9865417550590188e+00 3.0053519030347999e+00 2.0631626390494130e+01 -1 -1 0
2939 444 1 4.1499999999999998e-01 4.3996314737320361e+00 4.5966444494074565e+00 2.2569151716056318e+01 3 0 0
4077 444 1 4.1499999999999998e-01 8.5061438679206809e+00 1.3220534935539705e+00 2.2269158416374694e+01 3 0 0
1567 444 2 -8.2999999999999996e-01 9.0761451242762692e-01 6.3807366388183961e+00 1.7177633943077410e+01 0 1 0
4575 444 1 4.1499999999999998e-01 4.0274767763692836e+00 5.8015456363594904e+00 1.7625457380946852e+01 0 -2 0
1739 444 1 4.1499999999999998e-01 3.9820457343022948e+00 6.1131057898761725e+00 2.1218473887622835e+01 -3 1 0
1569 444 1 4.1499999999999998e-01 1.1720808618632226e+00 5.5775731381185585e+00 1.7626206904216552e+01 0 1 0
1738 444 2 -8.2999999999999996e-01 4.1840022604001490e+00 6.1930665534614420e+00 2.0286244633958429e+01 -3 1 0
1740 444 1 4.1499999999999998e-01 5.1033275265285436e+00 5.9356456121069083e+00 2.0216910214061034e+01 -3 1 0
2630 444 1 4.1499999999999998e-01 5.7930495407576448e+00 6.2787312807109981e+00 2.3681011739807879e+01 2 4 0
3750 444 1 4.1499999999999998e-01 3.9775371189617941e+00 1.9383244673803603e+00 2.2001899058551253e+01 -2 -2 0
4058 444 1 4.1499999999999998e-01 6.5157716178133951e+00 1.4619533157142106e+00 1.8320588990929689e+01 -1 1 0
3748 444 2 -8.2999999999999996e-01 4.5829419032019594e+00 2.6690400824726597e+00 2.2127485244953338e+01 -2 -2 0
3749 444 1 4.1499999999999998e-01 5.1499657194924291e+00 2.3900621459596487e+00 2.2846434062059544e+01 -2 -2 0
5584 444 2 -8.2999999999999996e-01 9.9312182201016235e+00 5.8462727883590775e+00 2.1618995909655379e+01 1 0 0
5901 444 1 4.1499999999999998e-01 8.6775872078937322e-01 2.8856911036754225e+00 2.2533186569733591e+01 -2 2 0
4574 444 1 4.1499999999999998e-01 4.7538219729511582e+00 7.0011177140994096e+00 1.7055067806494531e+01 0 -2 0
2156 444 1 4.1499999999999998e-01 9.6208717169070432e+00 4.2594213760032682e+00 1.6445304742471848e+01 0 2 0
5900 444 1 4.1499999999999998e-01 1.0022912909846386e+00 2.9413223275635829e+00 2.4040071162303132e+01 -2 2 0
2901 444 1 4.1499999999999998e-01 6.9621441812535876e+00 6.6084387924572345e+00 1.6878014849131414e+01 1 -2 0
1618 444 2 -8.2999999999999996e-01 7.3064328445688886e-02 1.1310389891640553e+00 1.8266083696261099e+01 1 0 0
4818 444 1 4.1499999999999998e-01 3.2482831724635730e-02 2.1148337764867633e+00 2.0927754245102054e+01 2 -2 0
2629 444 2 -8.2999999999999996e-01 6.4653804456062831e+00 6.6391181994894009e+00 2.4259219517135559e+01 2 4 0
1485 444 1 4.1499999999999998e-01 6.6390581165070541e+00 1.6483609675917748e+00 2.4058618418675803e+01 3 -1 0
2290 444 2 -8.2999999999999996e-01 1.0820781976626414e+01 2.0623763709817697e+00 1.7826059925830844e+01 0 2 0
478 444 2 -8.2999999999999996e-01 7.0025678356750554e+00 6.6707415505220045e+00 2.0638766505472468e+01 6 -2 0
1465 444 2 -8.2999999999999996e-01 1.1028702601440413e+01 1.3502432995014306e+00 2.3853455336032148e+01 1 -2 0
4545 444 1 4.1499999999999998e-01 8.2235348868479416e+00 6.6024913035792334e+00 2.4132300775321863e+01 0 -2 0
4543 444 2 -8.2999999999999996e-01 9.1669827700199473e+00 6.7635184402345505e+00 2.4146774765167752e+01 0 -2 0
2155 444 2 -8.2999999999999996e-01 1.0218940455705452e+01 5.0038968468168807e+00 1.6510893656341068e+01 0 2 0
4573 444 2 -8.2999999999999996e-01 3.8873450376488594e+00 6.5987239652805645e+00 1.7114476319730002e+01 0 -2 0
2111 444 1 4.1499999999999998e-01 4.0983301504796401e+00 7.0728769869663255e-01 2.7373404027520994e+01 3 3 0
981 444 1 4.1499999999999998e-01 1.0009096968751155e+01 1.1564828204759159e+00 3.2223751692312696e+01 1 -2 0
2112 444 1 4.1499999999999998e-01 4.7599726316947697e+00 1.4047290174715574e+00 2.8542891136331928e+01 3 3 0
1319 444 1 4.1499999999999998e-01 9.9460025307178661e+00 8.9849149952260388e-01 2.5231358220170957e+01 0 -1 0
5966 444 1 4.1499999999999998e-01 4.3824812326851349e-02 4.9710170482410831e-01 3.0457489730714475e+01 -2 2 0
4805 444 1 4.1499999999999998e-01 5.7550189061807444e-01 3.2353444503858051e+00 2.6854859956018011e+01 -3 3 0
979 444 2 -8.2999999999999996e-01 9.5246055272395385e+00 7.6738273897395326e-01 3.1495671252716608e+01 1 -2 0
4028 444 1 4.1499999999999998e-01 4.6067313770347589e+00 5.0043428303242914e+00 3.2303997972116491e+01 1 5 0
3636 444 1 4.1499999999999998e-01 1.7250587388852234e+00 6.0900463245930432e+00 2.4471779743634496e+01 -2 0 0
2094 444 1 4.1499999999999998e-01 9.5421429218680078e+00 3.8671991464281374e+00 2.5008363165844056e+01 3 5 0
3634 444 2 -8.2999999999999996e-01 2.1895267327499273e+00 5.2804737487916436e+00 2.4684134310381530e+01 -2 0 0
5534 444 1 4.1499999999999998e-01 1.0745063128927621e+01 6.7817975512905235e+00 2.6154944904959287e+01 2 -4 0
1483 444 2 -8.2999999999999996e-01 5.7421999701327522e+00 1.6200595183509359e+00 2.4391898391373196e+01 3 -1 0
1724 444 1 4.1499999999999998e-01 1.0733641312166824e+01 4.8460023860951660e+00 2.8940164972611512e+01 -2 -1 0
151 444 2 -8.2999999999999996e-01 6.6470739174817450e-01 2.3891995518206488e+00 2.9956443194860853e+01 -1 4 0
4544 444 1 4.1499999999999998e-01 9.5393102749938379e+00 5.9734355056596646e+00 2.4538403821782886e+01 0 -2 0
2219 444 1 4.1499999999999998e-01 4.6538102128117753e+00 7.2429965491640722e+00 2.6508984908763228e+01 -1 0 0
1318 444 2 -8.2999999999999996e-01 9.8334932966465285e+00 7.0811083676100106e-01 2.6162663635475656e+01 0 -1 0
2363 444 1 4.1499999999999998e-01 2.5290379717744229e+00 3.1989726670952527e+00 2.5690809016754280e+01 -2 -2 0
2110 444 2 -8.2999999999999996e-01 4.1945802366247360e+00 1.5649817101244203e+00 2.7787323336958583e+01 3 3 0
2362 444 2 -8.2999999999999996e-01 1.7628777211371178e+00 2.6342233859962714e+00 2.5589372426267833e+01 -2 -2 0
2220 444 1 4.1499999999999998e-01 3.3744603435125016e+00 7.5569744204000449e+00 2.7255025890763886e+01 -1 0 0
152 444 1 4.1499999999999998e-01 1.5675841858230280e-01 3.1958109430954069e+00 3.0043609586130628e+01 -1 4 0
153 444 1 4.1499999999999998e-01 1.4723829754779612e+00 2.5606996926612653e+00 3.0440675371330585e+01 -1 4 0
2364 444 1 4.1499999999999998e-01 2.0995344189055252e+00 1.7475417146035648e+00 2.5718564646003752e+01 -2 -2 0
980 444 1 4.1499999999999998e-01 8.6051978915643623e+00 9.3580450083901379e-01 3.1701962692262821e+01 1 -2 0
2706 444 1 4.1499999999999998e-01 6.0895483960020629e+00 5.7527990243826803e+00 2.7463193521601550e+01 -2 -2 0
2631 444 1 4.1499999999999998e-01 6.3330435620802206e+00 6.1867551703138446e+00 2.5092338041045949e+01 2 4 0
776 444 1 4.1499999999999998e-01 1.7562624485262752e+00 5.9376126358738635e+00 2.8762629766060254e+01 3 -1 0
1710 444 1 4.1499999999999998e-01 3.9539600485222155e+00 6.6718701207680633e+00 3.1376475314097210e+01 1 -1 0
2704 444 2 -8.2999999999999996e-01 5.8523378529971080e+00 5.7521057049924602e+00 2.6535851802235719e+01 -2 -2 0
120 444 1 4.1499999999999998e-01 4.4998185360274467e+00 2.8809416266209165e+00 2.6606579027537816e+01 2 4 0
2705 444 1 4.1499999999999998e-01 5.3848736704275630e+00 4.9266069262781178e+00 2.6408330530766047e+01 -2 -2 0
5345 444 1 4.1499999999999998e-01 3.9966636806378397e+00 2.7628465808683433e+00 3.0369888619107329e+01 1 1 0
5344 444 2 -8.2999999999999996e-01 3.2219662802206872e+00 3.2791891898340486e+00 3.0592298653202572e+01 1 1 0
118 444 2 -8.2999999999999996e-01 4.5166294160330560e+00 3.4192768195600647e+00 2.5815286128954039e+01 2 4 0
119 444 1 4.1499999999999998e-01 5.0850464160039994e+00 2.9409782606106813e+00 2.5211660026599777e+01 2 4 0
1391 444 1 4.1499999999999998e-01 1.0704176713855684e+01 1.1547258475480306e+00 2.9029418795895861e+01 5 -1 0
2179 444 2 -8.2999999999999996e-01 2.9267415051196650e+00 4.8729802153331674e+00 2.7712441732992581e+01 0 -3 0
2180 444 1 4.1499999999999998e-01 2.8151051850058417e+00 4.7559577312399401e+00 2.6769003836717808e+01 0 -3 0
4982 444 1 4.1499999999999998e-01 7.7906962275272882e+00 7.2639234070134773e+00 2.9949169689888176e+01 -2 2 0
2181 444 1 4.1499999999999998e-01 3.1630119477298679e+00 4.0035888776453890e+00 2.8035809770311193e+01 0 -3 0
5477 444 1 4.1499999999999998e-01 9.0475643457749921e+00 3.3103518571497101e+00 2.7569839828010977e+01 1 2 0
701 444 1 4.1499999999999998e-01 8.0551563772562460e+00 1.1849117797707762e+00 2.9589415490014215e+01 -2 -1 0
702 444 1 4.1499999999999998e-01 7.2894674099422119e+00 2.4383208993810999e+00 2.9222562442160626e+01 -2 -1 0
700 444 2 -8.2999999999999996e-01 8.1127770387375691e+00 1.9787466619839302e+00 2.9057684270704158e+01 -2 -1 0
5299 444 2 -8.2999999999999996e-01 5.5833669850448748e+00 1.6273381167227652e+00 3.0290038811174508e+01 3 3 0
5301 444 1 4.1499999999999998e-01 5.6365622321552342e+00 7.4932231641931468e-01 2.9912559856548640e+01 3 3 0
4981 444 2 -8.2999999999999996e-01 7.2353663498834120e+00 7.2651444247494510e+00 2.9169529230496988e+01 -2 2 0
5478 444 1 4.1499999999999998e-01 9.4981032100469367e+00 2.3224654127091444e+00 2.6514856405453163e+01 1 2 0
5476 444 2 -8.2999999999999996e-01 9.3602629695609814e+00 3.2574379535572024e+00 2.6666705602638469e+01 1 2 0
5300 444 1 4.1499999999999998e-01 5.9284216456050354e+00 1.5283850984441154e+00 3.1177381739044545e+01 3 3 0
5346 444 1 4.1499999999999998e-01 3.5713215515248975e+00 4.1146827591023403e+00 3.0902353057768860e+01 1 1 0
1708 444 2 -8.2999999999999996e-01 3.8225111104753049e+00 5.8411803985435000e+00 3.0919410467729833e+01 1 -1 0
1709 444 1 4.1499999999999998e-01 3.1106295363283136e+00 6.0159829454342448e+00 3.0303861200687727e+01 1 -1 0
775 444 2 -8.2999999999999996e-01 1.3393467445818088e+00 6.3950283183675252e+00 2.9492824800157578e+01 3 -1 0
271 444 2 -8.2999999999999996e-01 6.9017022950818392e+00 9.5615631546315327e-01 3.2481299078849261e+01 2 2 0
777 444 1 4.1499999999999998e-01 1.5977892834489342e+00 7.3099718420618487e+00 2.9381833316444432e+01 3 -1 0
4326 444 1 4.1499999999999998e-01 8.6566799182896652e+00 7.6805163662068008e+00 2.7740775133109349e+01 1 1 0
4430 444 1 4.1499999999999998e-01 6.2646944767710308e-02 7.1582884789364298e+00 3.4876758679654358e+01 1 -2 0
4204 444 2 -8.2999999999999996e-01 1.0957923543484281e+01 3.6196818899947365e+00 3.3487195931290650e+01 5 2 0
3925 444 2 -8.2999999999999996e-01 4.1327094739245807e+00 9.7590054774589818e-01 3.3817284608636697e+01 0 0 0
2015 444 1 4.1499999999999998e-01 1.0592241864840560e+01 7.5373419814703020e+00 3.5140014889330736e+01 2 0 0
2014 444 2 -8.2999999999999996e-01 1.1243660363785486e+01 6.8689544238332090e+00 3.4927544129724886e+01 2 0 0
4915 444 2 -8.2999999999999996e-01 1.8606234508279229e+00 1.9455366492226980e+00 3.4245636603609064e+01 5 -1 0
3926 444 1 4.1499999999999998e-01 3.2064809052974126e+00 1.0905186971322709e+00 3.4029876269827653e+01 0 0 0
3178 444 2 -8.2999999999999996e-01 2.8385619428454589e+00 6.9737344556740686e+00 3.3719946168663007e+01 1 -3 0