LAMMPS data file via write_data, version 11 Aug 2017, timestep = 500000

7184 atoms
4 atom types
4000 bonds
1 bond types
2000 angles
1 angle types

0.0000000000000000e+00 4.5679949999999998e+01 xlo xhi
0.0000000000000000e+00 4.6885919999999999e+01 ylo yhi
0.0000000000000000e+00 6.5000000000000000e+01 zlo zhi

Masses

1 1.0079
2 15.9994
3 22.9898
4 107.868

Bond Coeffs # harmonic

1 450 0.9572

Angle Coeffs # harmonic

1 55 104.52

Atoms # full

6033 444 4 0.0000000000000000e+00 1.6907200000000000e+00 0.0000000000000000e+00 0.0000000000000000e+00 0 0 0
6034 444 4 0.0000000000000000e+00 4.2285000000000004e+00 1.4651900000000000e+00 0.0000000000000000e+00 0 0 0
6035 444 4 -1.1111000000000000e-01 1.6907700000000001e+00 0.0000000000000000e+00 7.1781499999999996e+00 0 0 0
6036 444 4 -1.1111000000000000e-01 4.2285500000000003e+00 1.4651900000000000e+00 7.1781499999999996e+00 0 0 0
6037 444 4 0.0000000000000000e+00 2.5366499999999998e+00 1.4651900000000000e+00 2.3926400000000001e+00 0 0 0
6038 444 4 0.0000000000000000e+00 5.0744199999999999e+00 0.0000000000000000e+00 2.3926400000000001e+00 0 0 0
6039 444 4 0.0000000000000000e+00 8.4509000000000001e-01 1.4651900000000000e+00 4.7824200000000001e+00 0 0 0
6040 444 4 0.0000000000000000e+00 3.3828600000000000e+00 0.0000000000000000e+00 4.7824499999999999e+00 0 0 0
6041 444 4 0.0000000000000000e+00 1.6907200000000000e+00 2.9303699999999999e+00 0.0000000000000000e+00 0 0 0
6042 444 4 0.0000000000000000e+00 4.2285000000000004e+00 4.3955599999999997e+00 0.0000000000000000e+00 0 0 0
6043 444 4 -1.1111000000000000e-01 1.6907700000000001e+00 2.9303699999999999e+00 7.1781899999999998e+00 0 0 0
6044 444 4 -1.1111000000000000e-01 4.2285500000000003e+00 4.3955599999999997e+00 7.1781600000000001e+00 0 0 0
6045 444 4 0.0000000000000000e+00 2.5366499999999998e+00 4.3955599999999997e+00 2.3926400000000001e+00 0 0 0
6046 444 4 0.0000000000000000e+00 5.0744199999999999e+00 2.9303699999999999e+00 2.3926400000000001e+00 0 0 0
6047 444 4 0.0000000000000000e+00 8.4509000000000001e-01 4.3955599999999997e+00 4.7824499999999999e+00 0 0 0
6048 444 4 0.0000000000000000e+00 3.3828700000000000e+00 2.9303699999999999e+00 4.7824400000000002e+00 0 0 0
6049 444 4 0.0000000000000000e+00 1.6907200000000000e+00 5.8607399999999998e+00 0.0000000000000000e+00 0 0 0
6050 444 4 0.0000000000000000e+00 4.2285000000000004e+00 7.3259299999999996e+00 0.0000000000000000e+00 0 0 0
6051 444 4 -1.1111000000000000e-01 1.6907700000000001e+00 5.8607399999999998e+00 7.1781499999999996e+00 0 0 0
6052 444 4 -1.1111000000000000e-01 4.2285500000000003e+00 7.3259299999999996e+00 7.1781499999999996e+00 0 0 0
6053 444 4 0.0000000000000000e+00 2.5366499999999998e+00 7.3259299999999996e+00 2.3926400000000001e+00 0 0 0
6054 444 4 0.0000000000000000e+00 5.0744199999999999e+00 5.8607399999999998e+00 2.3926400000000001e+00 0 0 0
6055 444 4 0.0000000000000000e+00 8.4509000000000001e-01 7.3259299999999996e+00 4.7824200000000001e+00 0 0 0
6056 444 4 0.0000000000000000e+00 3.3828600000000000e+00 5.8607399999999998e+00 4.7824499999999999e+00 0 0 0
6161 444 4 0.0000000000000000e+00 6.7662699999999996e+00 0.0000000000000000e+00 0.0000000000000000e+00 0 0 0
6163 444 4 -1.1111000000000000e-01 6.7663200000000003e+00 0.0000000000000000e+00 7.1781499999999996e+00 0 0 0
6165 444 4 0.0000000000000000e+00 7.6121999999999996e+00 1.4651900000000000e+00 2.3926400000000001e+00 0 0 0
6167 444 4 0.0000000000000000e+00 5.9206399999999997e+00 1.4651900000000000e+00 4.7824200000000001e+00 0 0 0
6169 444 4 0.0000000000000000e+00 6.7662699999999996e+00 2.9303699999999999e+00 0.0000000000000000e+00 0 0 0
6171 444 4 -1.1111000000000000e-01 6.7663200000000003e+00 2.9303699999999999e+00 7.1781899999999998e+00 0 0 0
6173 444 4 0.0000000000000000e+00 7.6121999999999996e+00 4.3955599999999997e+00 2.3926400000000001e+00 0 0 0
6175 444 4 0.0000000000000000e+00 5.9206399999999997e+00 4.3955599999999997e+00 4.7824499999999999e+00 0 0 0
6177 444 4 0.0000000000000000e+00 6.7662699999999996e+00 5.8607399999999998e+00 0.0000000000000000e+00 0 0 0
6179 444 4 -1.1111000000000000e-01 6.7663200000000003e+00 5.8607399999999998e+00 7.1781499999999996e+00 0 0 0
6181 444 4 0.0000000000000000e+00 7.6121999999999996e+00 7.3259299999999996e+00 2.3926400000000001e+00 0 0 0
6183 444 4 0.0000000000000000e+00 5.9206399999999997e+00 7.3259299999999996e+00 4.7824200000000001e+00 0 0 0
6057 444 4 0.0000000000000000e+00 1.6907200000000000e+00 8.7911099999999998e+00 0.0000000000000000e+00 0 0 0
6058 444 4 0.0000000000000000e+00 4.2285000000000004e+00 1.0256300000000000e+01 0.0000000000000000e+00 0 0 0
6059 444 4 -1.1111000000000000e-01 1.6907700000000001e+00 8.7911099999999998e+00 7.1781899999999998e+00 0 0 0
6060 444 4 -1.1111000000000000e-01 4.2285500000000003e+00 1.0256300000000000e+01 7.1781600000000001e+00 0 0 0
6061 444 4 0.0000000000000000e+00 2.5366499999999998e+00 1.0256300000000000e+01 2.3926400000000001e+00 0 0 0
6062 444 4 0.0000000000000000e+00 5.0744199999999999e+00 8.7911099999999998e+00 2.3926400000000001e+00 0 0 0
6063 444 4 0.0000000000000000e+00 8.4509000000000001e-01 1.0256300000000000e+01 4.7824499999999999e+00 0 0 0
6064 444 4 0.0000000000000000e+00 3.3828700000000000e+00 8.7911099999999998e+00 4.7824400000000002e+00 0 0 0
6185 444 4 0.0000000000000000e+00 6.7662699999999996e+00 8.7911099999999998e+00 0.0000000000000000e+00 0 0 0
6187 444 4 -1.1111000000000000e-01 6.7663200000000003e+00 8.7911099999999998e+00 7.1781899999999998e+00 0 0 0
6189 444 4 0.0000000000000000e+00 7.6121999999999996e+00 1.0256300000000000e+01 2.3926400000000001e+00 0 0 0
6191 444 4 0.0000000000000000e+00 5.9206399999999997e+00 1.0256300000000000e+01 4.7824499999999999e+00 0 0 0
6162 444 4 0.0000000000000000e+00 9.3040500000000002e+00 1.4651900000000000e+00 0.0000000000000000e+00 0 0 0
6164 444 4 -1.1111000000000000e-01 9.3041000000000000e+00 1.4651900000000000e+00 7.1781499999999996e+00 0 0 0
6166 444 4 0.0000000000000000e+00 1.0149970000000000e+01 0.0000000000000000e+00 2.3926400000000001e+00 0 0 0
6168 444 4 0.0000000000000000e+00 8.4584100000000007e+00 0.0000000000000000e+00 4.7824499999999999e+00 0 0 0
6170 444 4 0.0000000000000000e+00 9.3040500000000002e+00 4.3955599999999997e+00 0.0000000000000000e+00 0 0 0
6172 444 4 -1.1111000000000000e-01 9.3041000000000000e+00 4.3955599999999997e+00 7.1781600000000001e+00 0 0 0
6174 444 4 0.0000000000000000e+00 1.0149970000000000e+01 2.9303699999999999e+00 2.3926400000000001e+00 0 0 0
6176 444 4 0.0000000000000000e+00 8.4584200000000003e+00 2.9303699999999999e+00 4.7824400000000002e+00 0 0 0
6178 444 4 0.0000000000000000e+00 9.3040500000000002e+00 7.3259299999999996e+00 0.0000000000000000e+00 0 0 0
6180 444 4 -1.1111000000000000e-01 9.3041000000000000e+00 7.3259299999999996e+00 7.1781499999999996e+00 0 0 0
6182 444 4 0.0000000000000000e+00 1.0149970000000000e+01 5.8607399999999998e+00 2.3926400000000001e+00 0 0 0
6184 444 4 0.0000000000000000e+00 8.4584100000000007e+00 5.8607399999999998e+00 4.7824499999999999e+00 0 0 0
6295 444 4 0.0000000000000000e+00 1.0996190000000000e+01 1.4651900000000000e+00 4.7824200000000001e+00 0 0 0
6303 444 4 0.0000000000000000e+00 1.0996190000000000e+01 4.3955599999999997e+00 4.7824499999999999e+00 0 0 0
6311 444 4 0.0000000000000000e+00 1.0996190000000000e+01 7.3259299999999996e+00 4.7824200000000001e+00 0 0 0
6289 444 4 0.0000000000000000e+00 1.1841820000000000e+01 0.0000000000000000e+00 0.0000000000000000e+00 0 0 0
6290 444 4 0.0000000000000000e+00 1.4379600000000000e+01 1.4651900000000000e+00 0.0000000000000000e+00 0 0 0
6291 444 4 -1.1111000000000000e-01 1.1841870000000000e+01 0.0000000000000000e+00 7.1781499999999996e+00 0 0 0
6292 444 4 -1.1111000000000000e-01 1.4379650000000000e+01 1.4651900000000000e+00 7.1781499999999996e+00 0 0 0
6293 444 4 0.0000000000000000e+00 1.2687749999999999e+01 1.4651900000000000e+00 2.3926400000000001e+00 0 0 0
6294 444 4 0.0000000000000000e+00 1.5225519999999999e+01 0.0000000000000000e+00 2.3926400000000001e+00 0 0 0
6296 444 4 0.0000000000000000e+00 1.3533960000000000e+01 0.0000000000000000e+00 4.7824499999999999e+00 0 0 0
6297 444 4 0.0000000000000000e+00 1.1841820000000000e+01 2.9303699999999999e+00 0.0000000000000000e+00 0 0 0
6298 444 4 0.0000000000000000e+00 1.4379600000000000e+01 4.3955599999999997e+00 0.0000000000000000e+00 0 0 0
6299 444 4 -1.1111000000000000e-01 1.1841870000000000e+01 2.9303699999999999e+00 7.1781899999999998e+00 0 0 0
6300 444 4 -1.1111000000000000e-01 1.4379650000000000e+01 4.3955599999999997e+00 7.1781600000000001e+00 0 0 0
6301 444 4 0.0000000000000000e+00 1.2687749999999999e+01 4.3955599999999997e+00 2.3926400000000001e+00 0 0 0
6302 444 4 0.0000000000000000e+00 1.5225519999999999e+01 2.9303699999999999e+00 2.3926400000000001e+00 0 0 0
6304 444 4 0.0000000000000000e+00 1.3533970000000000e+01 2.9303699999999999e+00 4.7824400000000002e+00 0 0 0
6305 444 4 0.0000000000000000e+00 1.1841820000000000e+01 5.8607399999999998e+00 0.0000000000000000e+00 0 0 0
6306 444 4 0.0000000000000000e+00 1.4379600000000000e+01 7.3259299999999996e+00 0.0000000000000000e+00 0 0 0
6307 444 4 -1.1111000000000000e-01 1.1841870000000000e+01 5.8607399999999998e+00 7.1781499999999996e+00 0 0 0
6308 444 4 -1.1111000000000000e-01 1.4379650000000000e+01 7.3259299999999996e+00 7.1781499999999996e+00 0 0 0
6309 444 4 0.0000000000000000e+00 1.2687749999999999e+01 7.3259299999999996e+00 2.3926400000000001e+00 0 0 0
6310 444 4 0.0000000000000000e+00 1.5225519999999999e+01 5.8607399999999998e+00 2.3926400000000001e+00 0 0 0
6312 444 4 0.0000000000000000e+00 1.3533960000000000e+01 5.8607399999999998e+00 4.7824499999999999e+00 0 0 0
6186 444 4 0.0000000000000000e+00 9.3040500000000002e+00 1.0256300000000000e+01 0.0000000000000000e+00 0 0 0
6188 444 4 -1.1111000000000000e-01 9.3041000000000000e+00 1.0256300000000000e+01 7.1781600000000001e+00 0 0 0
6190 444 4 0.0000000000000000e+00 1.0149970000000000e+01 8.7911099999999998e+00 2.3926400000000001e+00 0 0 0
6192 444 4 0.0000000000000000e+00 8.4584200000000003e+00 8.7911099999999998e+00 4.7824400000000002e+00 0 0 0
6319 444 4 0.0000000000000000e+00 1.0996190000000000e+01 1.0256300000000000e+01 4.7824499999999999e+00 0 0 0
6313 444 4 0.0000000000000000e+00 1.1841820000000000e+01 8.7911099999999998e+00 0.0000000000000000e+00 0 0 0
6314 444 4 0.0000000000000000e+00 1.4379600000000000e+01 1.0256300000000000e+01 0.0000000000000000e+00 0 0 0
6315 444 4 -1.1111000000000000e-01 1.1841870000000000e+01 8.7911099999999998e+00 7.1781899999999998e+00 0 0 0
6316 444 4 -1.1111000000000000e-01 1.4379650000000000e+01 1.0256300000000000e+01 7.1781600000000001e+00 0 0 0
6317 444 4 0.0000000000000000e+00 1.2687749999999999e+01 1.0256300000000000e+01 2.3926400000000001e+00 0 0 0
6318 444 4 0.0000000000000000e+00 1.5225519999999999e+01 8.7911099999999998e+00 2.3926400000000001e+00 0 0 0
6320 444 4 0.0000000000000000e+00 1.3533970000000000e+01 8.7911099999999998e+00 4.7824400000000002e+00 0 0 0
3225 444 1 4.1499999999999998e-01 4.3327200716782883e+00 9.4494830317311393e+00 1.1122812850296754e+01 -2 4 0
3224 444 1 4.1499999999999998e-01 3.2958323549207633e+00 8.3723346063148334e+00 1.0885092398861127e+01 -2 4 0
3223 444 2 -8.2999999999999996e-01 3.6144011551420636e+00 8.9828095905443295e+00 1.1549973324516790e+01 -2 4 0
5121 444 1 4.1499999999999998e-01 6.8503355245647537e+00 1.0931876808213390e+01 1.3153948933282763e+01 2 -1 0
3812 444 1 4.1499999999999998e-01 2.8173732830994687e+00 4.7436853880355168e+00 9.5851043509520721e+00 3 3 0
3811 444 2 -8.2999999999999996e-01 2.4713769870973707e+00 4.2977511710467571e+00 1.0358190261267659e+01 3 3 0
6019 444 3 1.0000000000000000e+00 1.6928066476744994e+00 1.0558317498869433e+01 1.1570059889563955e+01 2 -1 0
5733 444 1 4.1499999999999998e-01 7.5972406816549514e+00 9.5893511204398170e+00 1.4615161777202605e+01 4 0 0
1046 444 1 4.1499999999999998e-01 5.2528235687636124e+00 3.7503544413137919e+00 1.1581174574392076e+01 -2 -2 0
5102 444 1 4.1499999999999998e-01 4.0142687034860698e+00 6.6514817317912769e+00 1.0175259508626187e+01 -2 2 0
5103 444 1 4.1499999999999998e-01 5.2221386938507601e+00 6.0552819922794212e+00 9.4842519719640244e+00 -2 2 0
5101 444 2 -8.2999999999999996e-01 4.9299878910930701e+00 6.4145095843181608e+00 1.0322008253780716e+01 -2 2 0
4242 444 1 4.1499999999999998e-01 5.0461109162026743e+00 1.9240780749724700e+00 1.2455564733020955e+01 0 1 0
938 444 1 4.1499999999999998e-01 2.4547536141662976e+00 7.0969718924382832e+00 8.9166458648006834e+00 -2 -1 0
939 444 1 4.1499999999999998e-01 1.5766097626559723e+00 7.8614380373987807e+00 9.8842977704167811e+00 -2 -1 0
937 444 2 -8.2999999999999996e-01 2.3275226384342580e+00 7.2688492034782657e+00 9.8496530067419634e+00 -2 -1 0
4442 444 1 4.1499999999999998e-01 6.7600258490142622e+00 6.8890988287787227e+00 1.0477009897925534e+01 -3 2 0
3357 444 1 4.1499999999999998e-01 6.7108755337323367e-01 9.2768603099561524e+00 9.2090660830412041e+00 1 6 0
5641 444 2 -8.2999999999999996e-01 3.3460955414472329e+00 5.9420498678708231e+00 1.4628970112961502e+01 1 -2 0
963 444 1 4.1499999999999998e-01 4.6998035131960449e+00 5.2841334734228989e+00 1.3532601162583191e+01 2 1 0
961 444 2 -8.2999999999999996e-01 5.1054101269493533e+00 5.1455422252211100e+00 1.2676734329302422e+01 2 1 0
5643 444 1 4.1499999999999998e-01 3.8953926137082404e+00 5.6832818854213976e+00 1.5368932238568286e+01 1 -2 0
5642 444 1 4.1499999999999998e-01 3.4130519216603616e+00 6.8965421978423915e+00 1.4602614464539807e+01 1 -2 0
962 444 1 4.1499999999999998e-01 4.7807723154560602e+00 5.8668374499383686e+00 1.2137683319953259e+01 2 1 0
5573 444 1 4.1499999999999998e-01 2.1894068028768561e+00 1.9956585284427513e+00 1.2095027661288016e+01 2 -1 0
5574 444 1 4.1499999999999998e-01 2.0366459095816607e+00 2.4887161107695506e+00 1.3518212169926175e+01 2 -1 0
5572 444 2 -8.2999999999999996e-01 2.1556887626931225e+00 1.6914876764899991e+00 1.3001987201321128e+01 2 -1 0
1047 444 1 4.1499999999999998e-01 4.1386693586873200e+00 3.5790632162074272e+00 1.0570622750337662e+01 -2 -2 0
2217 444 1 4.1499999999999998e-01 5.9695303005702538e+00 1.0740285347881278e+01 1.5425078701101723e+01 3 1 0
1045 444 2 -8.2999999999999996e-01 4.9087013849971681e+00 3.1386843155522755e+00 1.0930274059087902e+01 -2 -2 0
4241 444 1 4.1499999999999998e-01 4.0075354393266442e+00 1.3364693545319277e+00 1.3387215157392051e+01 0 1 0
4240 444 2 -8.2999999999999996e-01 4.9455328812801742e+00 1.3267142892809300e+00 1.3196694253070198e+01 0 1 0
800 444 1 4.1499999999999998e-01 2.3608943397915159e+00 6.1167906726778263e+00 1.2515197660056598e+01 2 -5 0
3813 444 1 4.1499999999999998e-01 1.8710013573219939e+00 3.6400184796745814e+00 1.0007235698952105e+01 3 3 0
5712 444 1 4.1499999999999998e-01 3.3812080661975314e+00 8.9402887942561335e+00 1.3691405108949130e+01 0 -1 0
5710 444 2 -8.2999999999999996e-01 2.8192509701186816e+00 8.5153128937043778e+00 1.4339349257670669e+01 0 -1 0
5290 444 2 -8.2999999999999996e-01 3.4378066850062527e-01 9.6136941513019476e+00 1.3372373310782169e+01 -1 0 0
532 444 2 -8.2999999999999996e-01 5.9549485454941031e+00 1.0644749284621151e+01 1.0032718363260770e+01 3 -3 0
534 444 1 4.1499999999999998e-01 6.5005520238294885e+00 1.0054055982468121e+01 9.5134589029417711e+00 3 -3 0
203 444 1 4.1499999999999998e-01 6.6593205281478891e+00 7.6212803307579495e+00 1.5949306080114129e+01 -4 2 0
533 444 1 4.1499999999999998e-01 5.4859804595579940e+00 1.1170263729123201e+01 9.3845395357416752e+00 3 -3 0
384 444 1 4.1499999999999998e-01 7.0162375646635882e+00 5.1462566939851699e+00 1.3133905452836910e+01 -1 1 0
5711 444 1 4.1499999999999998e-01 1.9485508678251082e+00 8.8781691449893483e+00 1.4176719194909088e+01 0 -1 0
4933 444 2 -8.2999999999999996e-01 2.7751067458391616e+00 1.4125073307767477e+00 1.0308194381069454e+01 1 2 0
202 444 2 -8.2999999999999996e-01 7.2567492090568857e+00 7.9832588906777264e+00 1.5294872950393653e+01 -4 2 0
5624 444 1 4.1499999999999998e-01 1.6574993772952604e+00 4.6700172524764083e+00 1.4261481234327185e+01 2 -1 0
5623 444 2 -8.2999999999999996e-01 1.0201607906297541e+00 3.9600575489636172e+00 1.4338870953134258e+01 2 -1 0
3539 444 1 4.1499999999999998e-01 9.2563041560249992e-01 7.7937103967774091e-01 1.0752456864469114e+01 -1 5 0
668 444 1 4.1499999999999998e-01 1.1506025080284343e+00 7.1932888525824321e+00 1.5432863731147817e+01 0 -1 0
4935 444 1 4.1499999999999998e-01 3.6201589699722319e+00 1.5958478514831389e+00 1.0718688676321650e+01 1 2 0
4934 444 1 4.1499999999999998e-01 2.9923413015085019e+00 1.1789341165138283e+00 9.4057060978955569e+00 1 2 0
45 444 1 4.1499999999999998e-01 6.4928513021086420e+00 1.6289673931293278e+00 1.4112528776420607e+01 0 0 0
570 444 1 4.1499999999999998e-01 6.5301921097740792e+00 3.5046328450511290e+00 9.9065913101453553e+00 1 2 0
43 444 2 -8.2999999999999996e-01 7.4165302503441541e+00 1.8725384609725098e+00 1.4173545986108564e+01 0 0 0
568 444 2 -8.2999999999999996e-01 7.4343939578288536e+00 3.7696221603532889e+00 1.0075208548845573e+01 1 2 0
383 444 1 4.1499999999999998e-01 7.5374377189100281e+00 4.1738454280004778e+00 1.2097246351072451e+01 -1 1 0
44 444 1 4.1499999999999998e-01 7.4235804661379348e+00 2.8210688302199456e+00 1.4045200575791393e+01 0 0 0
4092 444 1 4.1499999999999998e-01 2.5308590050821067e-01 5.7570106591797865e+00 9.6797776532995830e+00 2 4 0
801 444 1 4.1499999999999998e-01 1.1837951463563439e+00 6.0205694566307137e+00 1.1568057481890156e+01 2 -5 0
3538 444 2 -8.2999999999999996e-01 6.9096495072120387e-02 4.5812613872111085e-01 1.0470706542312072e+01 -1 5 0
3355 444 2 -8.2999999999999996e-01 5.9867008417248169e-01 9.0694692660424145e+00 1.0140718948904926e+01 1 6 0
4524 444 1 4.1499999999999998e-01 3.2753460527476377e+00 9.3211779117910787e+00 1.5848570112563175e+01 0 1 0
5625 444 1 4.1499999999999998e-01 3.0642899313660704e-01 4.2134153045203480e+00 1.3753525630943438e+01 2 -1 0
799 444 2 -8.2999999999999996e-01 1.4215125900347556e+00 6.2905216963022630e+00 1.2455102326271335e+01 2 -5 0
667 444 2 -8.2999999999999996e-01 4.8981863188849434e-01 6.9885939094101790e+00 1.6094450081877675e+01 0 -1 0
883 444 2 -8.2999999999999996e-01 3.3738265156391516e+00 1.1105488163158650e+01 1.3308517619345810e+01 -3 0 0
3540 444 1 4.1499999999999998e-01 1.8808079050727622e-01 2.3562719209775035e-01 9.5473599796843196e+00 -1 5 0
3264 444 1 4.1499999999999998e-01 1.8187368582818482e+00 6.5343244022436422e-02 1.3099857904681803e+01 -2 -3 0
1688 444 1 4.1499999999999998e-01 5.8417504743984177e+00 1.0855407382671494e+00 1.0318402339956425e+01 0 2 0
1687 444 2 -8.2999999999999996e-01 5.4307629144461274e+00 2.3607904010405978e-01 1.0157977412095670e+01 0 2 0
5119 444 2 -8.2999999999999996e-01 5.9779847924146345e+00 1.1163292184331640e+01 1.2835069324577663e+01 2 -1 0
884 444 1 4.1499999999999998e-01 4.3126534502341825e+00 1.1192612892569693e+01 1.3143456505230088e+01 -3 0 0
5120 444 1 4.1499999999999998e-01 6.0717802049738223e+00 1.1197749002928090e+01 1.1883098630158036e+01 2 -1 0
3923 444 1 4.1499999999999998e-01 5.4822114398337263e-01 1.1626648859162797e+01 1.5893169940105075e+01 4 3 0
1689 444 1 4.1499999999999998e-01 5.4070093752613602e+00 1.5724854923362130e-01 9.2043246116835018e+00 0 2 0
5731 444 2 -8.2999999999999996e-01 7.9925048792375586e+00 1.0265604939815235e+01 1.4064999147612346e+01 4 0 0
5732 444 1 4.1499999999999998e-01 8.4422818933820842e+00 9.7799155703277449e+00 1.3373595935767426e+01 4 0 0
4441 444 2 -8.2999999999999996e-01 7.6250443048064707e+00 7.2988485916984240e+00 1.0468036223130637e+01 -3 2 0
4443 444 1 4.1499999999999998e-01 7.7867370151648627e+00 7.4979281286744097e+00 9.5458350728896075e+00 -3 2 0
204 444 1 4.1499999999999998e-01 8.0669106741808942e+00 7.4863294755841139e+00 1.5408590276698943e+01 -4 2 0
2754 444 1 4.1499999999999998e-01 9.6434976236473737e+00 8.4539812516103350e+00 1.1463076001833905e+01 -3 3 0
382 444 2 -8.2999999999999996e-01 7.8183879870768811e+00 4.7210081287159644e+00 1.2830671601578254e+01 -1 1 0
265 444 2 -8.2999999999999996e-01 1.1872362016737265e+01 4.6944354651172698e-01 1.2863992994377618e+01 -4 1 0
2048 444 1 4.1499999999999998e-01 7.9124803330741953e+00 1.5833421386893221e+00 9.9184131415734580e+00 2 -1 0
266 444 1 4.1499999999999998e-01 1.0920144489989951e+01 4.9895650450718060e-01 1.2956959631124649e+01 -4 1 0
4820 444 1 4.1499999999999998e-01 7.6737087527742469e+00 2.2058411684681367e-01 1.5235190840906078e+01 2 0 0
6017 444 3 1.0000000000000000e+00 1.4534691331626451e+01 4.2550098812486938e+00 1.2093603191840648e+01 1 1 0
2753 444 1 4.1499999999999998e-01 8.1966660651360304e+00 8.8250610942179630e+00 1.1709801346059832e+01 -3 3 0
569 444 1 4.1499999999999998e-01 7.6691975285272695e+00 4.3136571614648602e+00 9.3234603908235840e+00 1 2 0
2489 444 1 4.1499999999999998e-01 1.2526344256912514e+01 9.5840014269219580e+00 1.0199636953472343e+01 0 0 0
6012 444 3 1.0000000000000000e+00 9.6450518919648953e+00 6.1816964707363784e+00 1.2876333684806651e+01 2 1 0
2752 444 2 -8.2999999999999996e-01 9.0557285467237385e+00 8.8059628414807420e+00 1.2131558117933594e+01 -3 3 0
1326 444 1 4.1499999999999998e-01 1.0738429646542446e+01 3.4028273884523048e+00 1.2045223087200652e+01 -3 -2 0
1324 444 2 -8.2999999999999996e-01 1.0937978963308478e+01 3.7999837391361471e+00 1.2892972432572293e+01 -3 -2 0
1325 444 1 4.1499999999999998e-01 1.1863173215850436e+01 3.6024692907207343e+00 1.3038697142166196e+01 -3 -2 0
2940 444 1 4.1499999999999998e-01 1.1818895265971856e+01 8.1236471573305362e+00 1.2702693200807778e+01 3 -3 0
2488 444 2 -8.2999999999999996e-01 1.1643387751464463e+01 9.9485422732609834e+00 1.0138563561809514e+01 0 0 0
2938 444 2 -8.2999999999999996e-01 1.1703940479521457e+01 7.7220661098399397e+00 1.3563942361428198e+01 3 -3 0
2939 444 1 4.1499999999999998e-01 1.1764341659303897e+01 8.4526813121408395e+00 1.4179397599529860e+01 3 -3 0
2490 444 1 4.1499999999999998e-01 1.1514729010387548e+01 1.0110491938981511e+01 9.2039773672430414e+00 0 0 0
1069 444 2 -8.2999999999999996e-01 1.1079124307438402e+01 6.7542639261365558e+00 1.0895928084246156e+01 1 -2 0
1071 444 1 4.1499999999999998e-01 1.1859701708394782e+01 6.2221919182425118e+00 1.1050300656093240e+01 1 -2 0
19 444 2 -8.2999999999999996e-01 1.4029053376726576e+01 8.4660258288856340e+00 1.0696313895174145e+01 1 0 0
21 444 1 4.1499999999999998e-01 1.4577621901477217e+01 7.6961791714750287e+00 1.0846784749797571e+01 1 0 0
20 444 1 4.1499999999999998e-01 1.4209197038270132e+01 8.7156293121791091e+00 9.7899593509828886e+00 1 0 0
1070 444 1 4.1499999999999998e-01 1.1066864369829064e+01 6.8932647943716026e+00 9.9489534424163022e+00 1 -2 0
5407 444 2 -8.2999999999999996e-01 1.2151866488800561e+01 9.7180302352751653e+00 1.6138325247274768e+01 3 -1 0
5408 444 1 4.1499999999999998e-01 1.2416501072692448e+01 1.0414928494299396e+01 1.5537881056824240e+01 3 -1 0
290 444 1 4.1499999999999998e-01 1.0070537828633272e+01 5.2847614756657029e+00 1.5550383659033496e+01 4 -2 0
291 444 1 4.1499999999999998e-01 9.9942745653311160e+00 6.7468394291344058e+00 1.5935620700436367e+01 4 -2 0
289 444 2 -8.2999999999999996e-01 9.7297244807506047e+00 6.1287907252541807e+00 1.5254253270681382e+01 4 -2 0
946 444 2 -8.2999999999999996e-01 1.0966341547889106e+01 2.6495459662602561e+00 1.0358674026008394e+01 3 0 0
947 444 1 4.1499999999999998e-01 1.0681724168482065e+01 2.6464585423751470e+00 9.4447727876369001e+00 3 0 0
948 444 1 4.1499999999999998e-01 1.1390777197796236e+01 1.8003154990771582e+00 1.0480717414331682e+01 3 0 0
3622 444 2 -8.2999999999999996e-01 1.3938683111764242e+01 6.2814901136621293e+00 1.3453503924576481e+01 -1 0 0
3623 444 1 4.1499999999999998e-01 1.3188577864782223e+01 6.8577575469691112e+00 1.3600101583158573e+01 -1 0 0
3481 444 2 -8.2999999999999996e-01 1.2920006991629409e+01 4.5478974864129942e+00 1.0406460551348122e+01 -1 0 0
3483 444 1 4.1499999999999998e-01 1.3221156839223010e+01 4.9946864263184265e+00 9.6153091497633323e+00 -1 0 0
3624 444 1 4.1499999999999998e-01 1.4636156701726568e+01 6.8661675356513205e+00 1.3156996632353463e+01 -1 0 0
3482 444 1 4.1499999999999998e-01 1.2258521095549821e+01 3.9296636860832912e+00 1.0095886520281141e+01 -1 0 0
1335 444 1 4.1499999999999998e-01 8.9396161541405448e+00 3.0454884295615692e-01 1.1846184043398834e+01 -2 3 0
5906 444 1 4.1499999999999998e-01 1.3445183174805159e+01 2.4615107180469873e+00 1.4424153578564317e+01 -3 1 0
5905 444 2 -8.2999999999999996e-01 1.3185071047265660e+01 2.7149567682019708e+00 1.3538524524508757e+01 -3 1 0
267 444 1 4.1499999999999998e-01 1.2018218553037450e+01 2.8723475400649810e-02 1.2026900612965504e+01 -4 1 0
2268 444 1 4.1499999999999998e-01 1.1065240980489886e+01 2.7840574993650078e+00 1.5610137276202265e+01 -2 4 0
1334 444 1 4.1499999999999998e-01 8.6478073613189430e+00 9.5319806390012507e-01 1.3182596037763565e+01 -2 3 0
1470 444 1 4.1499999999999998e-01 1.4244389945776707e+01 1.1536598810054477e+01 1.0626598588781199e+01 0 -1 0
391 444 2 -8.2999999999999996e-01 1.4159143285212114e+01 2.1842513103155663e+00 1.5911014507997102e+01 -3 1 0
2047 444 2 -8.2999999999999996e-01 8.2838393461026385e+00 7.4364804765180970e-01 1.0189039683197608e+01 2 -1 0
1333 444 2 -8.2999999999999996e-01 9.2661333657809521e+00 3.6904221428545858e-01 1.2743657735441021e+01 -2 3 0
1090 444 2 -8.2999999999999996e-01 1.2915656914837220e+01 7.2573368556257523e-01 1.0362743870540593e+01 -1 0 0
2049 444 1 4.1499999999999998e-01 9.0173937206812393e+00 6.0166629520863579e-01 9.5907325599645681e+00 2 -1 0
2172 444 1 4.1499999999999998e-01 1.4202108105686824e+01 5.6102134193951416e+00 1.5521940817722511e+01 -1 0 0
1092 444 1 4.1499999999999998e-01 1.3134802295132713e+01 5.9609217147727778e-01 9.4400302853433011e+00 -1 0 0
5907 444 1 4.1499999999999998e-01 1.2749569315965513e+01 1.9392991345624897e+00 1.3185076632393422e+01 -3 1 0
1091 444 1 4.1499999999999998e-01 1.3651318149971274e+01 3.4234453679029470e-01 1.0840286971086480e+01 -1 0 0
392 444 1 4.1499999999999998e-01 1.4901632467210003e+01 1.5851270574795806e+00 1.5988426533612492e+01 -3 1 0
1469 444 1 4.1499999999999998e-01 1.5055712793049015e+01 1.1329350770922060e+01 9.3653695366013068e+00 0 -1 0
950 444 1 4.1499999999999998e-01 1.1463161417019569e+01 1.1059958884127356e+01 1.1638055093370623e+01 0 -3 0
949 444 2 -8.2999999999999996e-01 1.0987352727423159e+01 1.1339576655362517e+01 1.2420137008100928e+01 0 -3 0
951 444 1 4.1499999999999998e-01 1.0313726797780626e+01 1.0670752729651056e+01 1.2543159754153628e+01 0 -3 0
1468 444 2 -8.2999999999999996e-01 1.5143980566670441e+01 1.1514885631134833e+01 1.0300258842615458e+01 0 -1 0
5936 444 1 4.1499999999999998e-01 1.4834476729017828e+01 2.9952300950850144e+00 9.0562167922021963e+00 0 -2 0
1863 444 1 4.1499999999999998e-01 9.1803520587416170e+00 1.1401504174294480e+01 9.6730393953723546e+00 2 1 0
2642 444 1 4.1499999999999998e-01 1.5169007230109125e+01 1.6537777556336497e+00 1.0872776124970983e+01 -4 2 0
1889 444 1 4.1499999999999998e-01 2.2083246782955324e+00 5.3281673239430871e-01 2.3445186135164700e+01 -2 2 0
4918 444 2 -8.2999999999999996e-01 4.0227927236252015e-02 6.0577021597592982e+00 2.2945741928286665e+01 0 -3 0
5671 444 2 -8.2999999999999996e-01 5.4387627165358676e+00 5.8886964572077725e+00 1.6767906351876114e+01 1 3 0
2215 444 2 -8.2999999999999996e-01 5.8699162521023842e+00 1.0941684005224552e+01 1.6355534497130311e+01 3 1 0
556 444 2 -8.2999999999999996e-01 1.5112763435160956e-01 3.4986338386752514e+00 2.1955564731043914e+01 -2 3 0
5452 444 2 -8.2999999999999996e-01 5.6515595157802965e+00 4.6416120672131156e-01 2.4287886769376769e+01 1 2 0
669 444 1 4.1499999999999998e-01 1.5415657157733959e-01 7.8415099430964421e+00 1.6370307146191312e+01 0 -1 0
1811 444 1 4.1499999999999998e-01 1.6180313132154045e+00 5.3588035017381586e-01 2.1032310079552936e+01 3 3 0
3782 444 1 4.1499999999999998e-01 5.2222978036277370e+00 5.2462335726385101e-01 1.6567829078130899e+01 4 0 0
2413 444 2 -8.2999999999999996e-01 4.4078202361379404e+00 1.6555345881677325e-01 2.0143962052336782e+01 1 -1 0
5672 444 1 4.1499999999999998e-01 4.5808964319953205e+00 5.5610575540956617e+00 1.7037999022346217e+01 1 3 0
5673 444 1 4.1499999999999998e-01 6.0540518191097288e+00 5.4814511435176394e+00 1.7377662426994856e+01 1 3 0
2216 444 1 4.1499999999999998e-01 6.6013300480733905e+00 1.0491515233410695e+01 1.6778163420629451e+01 3 1 0
3852 444 1 4.1499999999999998e-01 2.1248194404683622e+00 5.1930829672411232e+00 1.6706658805355961e+01 -2 2 0
4522 444 2 -8.2999999999999996e-01 3.4773869584692587e+00 9.4921991093240390e+00 1.6768441667827393e+01 0 1 0
3851 444 1 4.1499999999999998e-01 2.7093471423192947e+00 5.3428606386698538e+00 1.8095107357829065e+01 -2 2 0
4523 444 1 4.1499999999999998e-01 4.1536430658406642e+00 1.0169178678936145e+01 1.6743771049508368e+01 0 1 0
3850 444 2 -8.2999999999999996e-01 2.6959949260477174e+00 4.7565114015941301e+00 1.7338636453065497e+01 -2 2 0
1766 444 1 4.1499999999999998e-01 2.1335008143438472e-02 8.5042211623697668e+00 2.0565716750694161e+01 -2 1 0
2118 444 1 4.1499999999999998e-01 2.1388074728205355e+00 4.3946384865957580e+00 2.1879481420199230e+01 -2 8 0
2012 444 1 4.1499999999999998e-01 3.2467278530481352e+00 5.6944472365351331e+00 2.0383730534991592e+01 4 0 0
2116 444 2 -8.2999999999999996e-01 3.0543251438043217e+00 4.6557215535115315e+00 2.1978956874484414e+01 -2 8 0
2011 444 2 -8.2999999999999996e-01 2.7188125325621306e+00 5.9189069627409667e+00 1.9617469591656079e+01 4 0 0
4367 444 1 4.1499999999999998e-01 6.3269924276329546e+00 2.9117524488602626e+00 2.1292260643865465e+01 -1 -1 0
2013 444 1 4.1499999999999998e-01 2.2870312610453021e+00 6.7393596143010548e+00 1.9855491526122290e+01 4 0 0
4707 444 1 4.1499999999999998e-01 2.5448807794433930e+00 8.8282292631861328e+00 1.9754540442620247e+01 2 -2 0
4998 444 1 4.1499999999999998e-01 4.1295962441719736e+00 9.0228878398067209e+00 1.8485551550138553e+01 -2 5 0
3988 444 2 -8.2999999999999996e-01 6.2975888467201679e+00 4.6947566591096983e+00 2.1086221525450171e+01 -1 0 0