LAMMPS data file via write_data, version 11 Aug 2017, timestep = 5000000

7184 atoms
4 atom types
4000 bonds
1 bond types
2000 angles
1 angle types

0.0000000000000000e+00 4.5679949999999998e+01 xlo xhi
0.0000000000000000e+00 4.6885919999999999e+01 ylo yhi
0.0000000000000000e+00 6.5000000000000000e+01 zlo zhi

Masses

1 1.0079
2 15.9994
3 22.9898
4 107.868

Bond Coeffs # harmonic

1 450 0.9572

Angle Coeffs # harmonic

1 55 104.52

Atoms # full

6033 444 4 0.0000000000000000e+00 1.6907200000000000e+00 0.0000000000000000e+00 0.0000000000000000e+00 0 0 0
6034 444 4 0.0000000000000000e+00 4.2285000000000004e+00 1.4651900000000000e+00 0.0000000000000000e+00 0 0 0
6035 444 4 -1.1111000000000000e-01 1.6907700000000001e+00 0.0000000000000000e+00 7.1781499999999996e+00 0 0 0
6036 444 4 -1.1111000000000000e-01 4.2285500000000003e+00 1.4651900000000000e+00 7.1781499999999996e+00 0 0 0
6037 444 4 0.0000000000000000e+00 2.5366499999999998e+00 1.4651900000000000e+00 2.3926400000000001e+00 0 0 0
6038 444 4 0.0000000000000000e+00 5.0744199999999999e+00 0.0000000000000000e+00 2.3926400000000001e+00 0 0 0
6039 444 4 0.0000000000000000e+00 8.4509000000000001e-01 1.4651900000000000e+00 4.7824200000000001e+00 0 0 0
6040 444 4 0.0000000000000000e+00 3.3828600000000000e+00 0.0000000000000000e+00 4.7824499999999999e+00 0 0 0
6041 444 4 0.0000000000000000e+00 1.6907200000000000e+00 2.9303699999999999e+00 0.0000000000000000e+00 0 0 0
6042 444 4 0.0000000000000000e+00 4.2285000000000004e+00 4.3955599999999997e+00 0.0000000000000000e+00 0 0 0
6043 444 4 -1.1111000000000000e-01 1.6907700000000001e+00 2.9303699999999999e+00 7.1781899999999998e+00 0 0 0
6044 444 4 -1.1111000000000000e-01 4.2285500000000003e+00 4.3955599999999997e+00 7.1781600000000001e+00 0 0 0
6045 444 4 0.0000000000000000e+00 2.5366499999999998e+00 4.3955599999999997e+00 2.3926400000000001e+00 0 0 0
6046 444 4 0.0000000000000000e+00 5.0744199999999999e+00 2.9303699999999999e+00 2.3926400000000001e+00 0 0 0
6047 444 4 0.0000000000000000e+00 8.4509000000000001e-01 4.3955599999999997e+00 4.7824499999999999e+00 0 0 0
6048 444 4 0.0000000000000000e+00 3.3828700000000000e+00 2.9303699999999999e+00 4.7824400000000002e+00 0 0 0
6049 444 4 0.0000000000000000e+00 1.6907200000000000e+00 5.8607399999999998e+00 0.0000000000000000e+00 0 0 0
6050 444 4 0.0000000000000000e+00 4.2285000000000004e+00 7.3259299999999996e+00 0.0000000000000000e+00 0 0 0
6051 444 4 -1.1111000000000000e-01 1.6907700000000001e+00 5.8607399999999998e+00 7.1781499999999996e+00 0 0 0
6052 444 4 -1.1111000000000000e-01 4.2285500000000003e+00 7.3259299999999996e+00 7.1781499999999996e+00 0 0 0
6053 444 4 0.0000000000000000e+00 2.5366499999999998e+00 7.3259299999999996e+00 2.3926400000000001e+00 0 0 0
6054 444 4 0.0000000000000000e+00 5.0744199999999999e+00 5.8607399999999998e+00 2.3926400000000001e+00 0 0 0
6055 444 4 0.0000000000000000e+00 8.4509000000000001e-01 7.3259299999999996e+00 4.7824200000000001e+00 0 0 0
6056 444 4 0.0000000000000000e+00 3.3828600000000000e+00 5.8607399999999998e+00 4.7824499999999999e+00 0 0 0
6161 444 4 0.0000000000000000e+00 6.7662699999999996e+00 0.0000000000000000e+00 0.0000000000000000e+00 0 0 0
6163 444 4 -1.1111000000000000e-01 6.7663200000000003e+00 0.0000000000000000e+00 7.1781499999999996e+00 0 0 0
6165 444 4 0.0000000000000000e+00 7.6121999999999996e+00 1.4651900000000000e+00 2.3926400000000001e+00 0 0 0
6167 444 4 0.0000000000000000e+00 5.9206399999999997e+00 1.4651900000000000e+00 4.7824200000000001e+00 0 0 0
6169 444 4 0.0000000000000000e+00 6.7662699999999996e+00 2.9303699999999999e+00 0.0000000000000000e+00 0 0 0
6171 444 4 -1.1111000000000000e-01 6.7663200000000003e+00 2.9303699999999999e+00 7.1781899999999998e+00 0 0 0
6173 444 4 0.0000000000000000e+00 7.6121999999999996e+00 4.3955599999999997e+00 2.3926400000000001e+00 0 0 0
6175 444 4 0.0000000000000000e+00 5.9206399999999997e+00 4.3955599999999997e+00 4.7824499999999999e+00 0 0 0
6177 444 4 0.0000000000000000e+00 6.7662699999999996e+00 5.8607399999999998e+00 0.0000000000000000e+00 0 0 0
6179 444 4 -1.1111000000000000e-01 6.7663200000000003e+00 5.8607399999999998e+00 7.1781499999999996e+00 0 0 0
6181 444 4 0.0000000000000000e+00 7.6121999999999996e+00 7.3259299999999996e+00 2.3926400000000001e+00 0 0 0
6183 444 4 0.0000000000000000e+00 5.9206399999999997e+00 7.3259299999999996e+00 4.7824200000000001e+00 0 0 0
6162 444 4 0.0000000000000000e+00 9.3040500000000002e+00 1.4651900000000000e+00 0.0000000000000000e+00 0 0 0
6164 444 4 -1.1111000000000000e-01 9.3041000000000000e+00 1.4651900000000000e+00 7.1781499999999996e+00 0 0 0
6166 444 4 0.0000000000000000e+00 1.0149970000000000e+01 0.0000000000000000e+00 2.3926400000000001e+00 0 0 0
6168 444 4 0.0000000000000000e+00 8.4584100000000007e+00 0.0000000000000000e+00 4.7824499999999999e+00 0 0 0
6170 444 4 0.0000000000000000e+00 9.3040500000000002e+00 4.3955599999999997e+00 0.0000000000000000e+00 0 0 0
6172 444 4 -1.1111000000000000e-01 9.3041000000000000e+00 4.3955599999999997e+00 7.1781600000000001e+00 0 0 0
6174 444 4 0.0000000000000000e+00 1.0149970000000000e+01 2.9303699999999999e+00 2.3926400000000001e+00 0 0 0
6176 444 4 0.0000000000000000e+00 8.4584200000000003e+00 2.9303699999999999e+00 4.7824400000000002e+00 0 0 0
6178 444 4 0.0000000000000000e+00 9.3040500000000002e+00 7.3259299999999996e+00 0.0000000000000000e+00 0 0 0
6180 444 4 -1.1111000000000000e-01 9.3041000000000000e+00 7.3259299999999996e+00 7.1781499999999996e+00 0 0 0
6182 444 4 0.0000000000000000e+00 1.0149970000000000e+01 5.8607399999999998e+00 2.3926400000000001e+00 0 0 0
6184 444 4 0.0000000000000000e+00 8.4584100000000007e+00 5.8607399999999998e+00 4.7824499999999999e+00 0 0 0
6295 444 4 0.0000000000000000e+00 1.0996190000000000e+01 1.4651900000000000e+00 4.7824200000000001e+00 0 0 0
6303 444 4 0.0000000000000000e+00 1.0996190000000000e+01 4.3955599999999997e+00 4.7824499999999999e+00 0 0 0
6311 444 4 0.0000000000000000e+00 1.0996190000000000e+01 7.3259299999999996e+00 4.7824200000000001e+00 0 0 0
5392 444 2 -8.2999999999999996e-01 7.4889633136066802e+00 3.3852233921581436e+00 1.0388237373519956e+01 4 -5 0
5394 444 1 4.1499999999999998e-01 6.8298345368824842e+00 3.9720956577977957e+00 1.0017613112468039e+01 4 -5 0
5393 444 1 4.1499999999999998e-01 7.6174032214368497e+00 2.7144862174927611e+00 9.7175310265244192e+00 4 -5 0
2030 444 1 4.1499999999999998e-01 6.7064948670047562e+00 2.1345488033956528e+00 1.4554143708620291e+01 1 4 0
2525 444 1 4.1499999999999998e-01 6.7721244985937856e+00 5.7118847189341015e-01 1.0413778405384884e+01 -2 -6 0
2524 444 2 -8.2999999999999996e-01 5.8247260877578233e+00 6.5230257262345137e-01 1.0303825719391805e+01 -2 -6 0
5240 444 1 4.1499999999999998e-01 8.4761075608069465e+00 3.6082253543467746e+00 1.1905536600233193e+01 -1 0 0
5103 444 1 4.1499999999999998e-01 7.9951897573684649e-01 3.7268624891405349e+00 1.5914492978828635e+01 -3 1 0
124 444 2 -8.2999999999999996e-01 1.0999235426451737e+01 2.9878981800028890e+00 1.4909462703109622e+01 2 1 0
4525 444 2 -8.2999999999999996e-01 9.5603334790772259e+00 5.9504651866852578e+00 1.0464359735083031e+01 4 5 0
5770 444 2 -8.2999999999999996e-01 5.2562309594086303e+00 2.1716323026109157e+00 1.3188343880645512e+01 4 -3 0
5772 444 1 4.1499999999999998e-01 5.0587226111634322e+00 2.4406183105740382e+00 1.2291199054171869e+01 4 -3 0
4527 444 1 4.1499999999999998e-01 9.8482676856138642e+00 5.9874845663380949e+00 9.5522435073689138e+00 4 5 0
774 444 1 4.1499999999999998e-01 3.6268941242577708e+00 4.6391801341720633e+00 1.1889217056602204e+01 -2 2 0
773 444 1 4.1499999999999998e-01 4.2265018161014778e+00 3.8951502854617512e+00 1.3063434010250065e+01 -2 2 0
5771 444 1 4.1499999999999998e-01 5.1625074908643169e+00 1.2190734932832685e+00 1.3179428843052456e+01 4 -3 0
772 444 2 -8.2999999999999996e-01 3.7140969312536249e+00 4.6726935536414596e+00 1.2841847709400824e+01 -2 2 0
126 444 1 4.1499999999999998e-01 1.0171755924643799e+01 2.9639256685134110e+00 1.4428905899343192e+01 2 1 0
5239 444 2 -8.2999999999999996e-01 9.0435430412942956e+00 3.4535830450773979e+00 1.2660741602396284e+01 -1 0 0
5241 444 1 4.1499999999999998e-01 9.7696676506169986e+00 2.9356600408288522e+00 1.2313278415054731e+01 -1 0 0
246 444 1 4.1499999999999998e-01 5.1982099480544672e+00 2.4412914837911961e+00 1.0544037340544934e+01 4 2 0
244 444 2 -8.2999999999999996e-01 4.5054317195994793e+00 3.0417317125974042e+00 1.0819285843821442e+01 4 2 0
4526 444 1 4.1499999999999998e-01 8.8624970342634644e+00 5.2953070609039541e+00 1.0469326796413743e+01 4 5 0
4421 444 1 4.1499999999999998e-01 8.0794930604044577e+00 5.6256892395708116e+00 1.5102285805722193e+01 0 -2 0
4420 444 2 -8.2999999999999996e-01 7.8456295825623572e+00 5.6643282328079447e+00 1.6029673012182332e+01 0 -2 0
245 444 1 4.1499999999999998e-01 3.8288247283380272e+00 2.9512485031254632e+00 1.0148280906460128e+01 4 2 0
2331 444 1 4.1499999999999998e-01 5.2815824968910690e+00 6.0249083387526046e+00 1.3746076047294361e+01 -3 4 0
3330 444 1 4.1499999999999998e-01 2.3084157205627851e+00 6.9059617539482216e+00 1.4576507009544772e+01 0 0 0
3329 444 1 4.1499999999999998e-01 3.3020911270833904e+00 5.8453708271665237e+00 1.4152653921082079e+01 0 0 0
3395 444 1 4.1499999999999998e-01 2.3270598731534196e+00 1.2574183363639759e+00 9.4489840452986300e+00 0 1 0
3328 444 2 -8.2999999999999996e-01 2.9519269092508376e+00 6.2890585315247050e+00 1.4925155553767405e+01 0 0 0
3000 444 1 4.1499999999999998e-01 5.8337552170838514e+00 7.0334023157476100e+00 9.6584039710535556e+00 -5 1 0
1978 444 2 -8.2999999999999996e-01 2.0449466589434091e+00 2.1028358720857079e+00 1.3044774055892598e+01 -5 1 0
1979 444 1 4.1499999999999998e-01 1.9541413207039304e+00 2.9846646753919344e+00 1.2683713587759300e+01 -5 1 0
1776 444 1 4.1499999999999998e-01 9.1248641695595349e+00 6.3938550642747027e-01 1.0273082732905431e+01 -1 -2 0
2241 444 1 4.1499999999999998e-01 2.5221934681548674e+00 2.7879934580693622e+00 1.4778696454818462e+01 4 2 0
2240 444 1 4.1499999999999998e-01 2.9727871593738757e+00 4.0154770659477244e+00 1.5541680682148591e+01 4 2 0
1980 444 1 4.1499999999999998e-01 2.1254027692911159e+00 1.5364092771739104e+00 1.2277362658822637e+01 -5 1 0
2943 444 1 4.1499999999999998e-01 4.1199642964384360e+00 6.4974381280588327e+00 1.0465128910014100e+01 4 -4 0
2329 444 2 -8.2999999999999996e-01 5.7298014662070695e+00 6.8517646299148547e+00 1.3568198120615191e+01 -3 4 0
2330 444 1 4.1499999999999998e-01 5.5790010479329570e+00 7.0108826698689537e+00 1.2636439982782885e+01 -3 4 0
2998 444 2 -8.2999999999999996e-01 5.7660436212314758e+00 7.3580507015433367e+00 1.0556318562756463e+01 -5 1 0
2029 444 2 -8.2999999999999996e-01 7.6201297630807785e+00 1.9375615084544278e+00 1.4760781419272252e+01 1 4 0
2031 444 1 4.1499999999999998e-01 8.1098113457951655e+00 2.2404674744265805e+00 1.3996130008135328e+01 1 4 0
2553 444 1 4.1499999999999998e-01 8.6445793641497275e+00 2.1886189401903673e+00 1.6186908431825735e+01 2 5 0
2239 444 2 -8.2999999999999996e-01 2.5580337764732746e+00 3.1608897216814067e+00 1.5659546328128986e+01 4 2 0
3543 444 1 4.1499999999999998e-01 1.0478945726327840e+00 6.0611125526096785e+00 1.0641075460159508e+01 -2 1 0
3542 444 1 4.1499999999999998e-01 3.7191245390751182e-01 6.8647362776874497e+00 9.5506020323774177e+00 -2 1 0
202 444 2 -8.2999999999999996e-01 1.0978516703947905e+01 1.5170015887077679e+00 1.1396248964102195e+01 -5 1 0
475 444 2 -8.2999999999999996e-01 9.2989898482982658e-01 3.5416203086112312e+00 1.0769610211309688e+01 3 -1 0
3541 444 2 -8.2999999999999996e-01 2.3765561044525610e-01 6.5278848925586379e+00 1.0436456778630452e+01 -2 1 0
2790 444 1 4.1499999999999998e-01 9.1308926053273503e+00 7.6103800249121027e+00 1.0016294435880386e+01 0 0 0
3516 444 1 4.1499999999999998e-01 7.6851702279613932e+00 7.1136796682599472e+00 1.3471966751129971e+01 -3 0 0
5859 444 1 4.1499999999999998e-01 2.5383827086573261e+00 7.5223897934289043e+00 1.1819941439209320e+01 6 2 0
5436 444 1 4.1499999999999998e-01 8.5999950199477961e+00 4.4651182437295162e-01 1.5308282077852411e+01 -1 -2 0
3394 444 2 -8.2999999999999996e-01 1.8373391025319252e+00 1.1078372065991724e+00 1.0257705816742654e+01 0 1 0
2561 444 1 4.1499999999999998e-01 2.0375471869437249e+00 6.5213384892683701e-01 1.4640459837280881e+01 0 3 0
476 444 1 4.1499999999999998e-01 1.3594153843014243e+00 3.7815011121859516e+00 9.9485105119645549e+00 3 -1 0
5101 444 2 -8.2999999999999996e-01 2.4433586442216906e-02 4.2573516650728642e+00 1.6099034928019467e+01 -3 1 0
2562 444 1 4.1499999999999998e-01 2.5041546443216913e+00 2.5666792796177279e-01 1.6025298976791856e+01 0 3 0
2941 444 2 -8.2999999999999996e-01 3.1748867560000495e+00 6.5488652736707689e+00 1.0322244285599439e+01 4 -4 0
3514 444 2 -8.2999999999999996e-01 8.5637326309670474e+00 7.4929670308451755e+00 1.3494351059215855e+01 -3 0 0
6008 444 3 1.0000000000000000e+00 1.0506042021433755e+01 6.7820096137301817e+00 1.2452845500802036e+01 0 2 0
477 444 1 4.1499999999999998e-01 9.9359051370021823e-01 2.5871555993416413e+00 1.0803850301755723e+01 3 -1 0
3396 444 1 4.1499999999999998e-01 1.8452479881298447e+00 1.5736804607180549e-01 1.0370744242206049e+01 0 1 0
5959 444 2 -8.2999999999999996e-01 1.0648282021326246e+01 6.0850526163486940e+00 1.4817174501215604e+01 0 -2 0
2942 444 1 4.1499999999999998e-01 3.0767105307615163e+00 6.5664965480571302e+00 9.3702555034739969e+00 4 -4 0
203 444 1 4.1499999999999998e-01 1.1391380307400794e+01 2.3453319904362542e+00 1.1152027232964070e+01 -5 1 0
5961 444 1 4.1499999999999998e-01 1.1210965333860582e+01 6.5676654694140373e+00 1.5422735554278827e+01 0 -2 0
5960 444 1 4.1499999999999998e-01 1.0935530456162724e+01 5.1753707647444864e+00 1.4895908937634646e+01 0 -2 0
5102 444 1 4.1499999999999998e-01 1.9418747707581849e-01 4.6387582696139011e+00 1.6960396919957951e+01 -3 1 0
39 444 1 4.1499999999999998e-01 1.1416857472170600e+01 3.2195412576671396e+00 1.6574572877367132e+01 -3 -2 0
4422 444 1 4.1499999999999998e-01 8.5697578957873155e+00 6.1368321290782761e+00 1.6440294972182450e+01 0 -2 0
4979 444 1 4.1499999999999998e-01 2.9342999786580539e+00 6.1021688513876500e+00 1.7028867858703531e+01 0 -5 0
254 444 1 4.1499999999999998e-01 3.5586702383585664e+00 2.4191893341035677e+00 1.7179057369915633e+01 -1 0 0
4978 444 2 -8.2999999999999996e-01 3.4631960946079756e+00 5.8314831739677606e+00 1.7779354382522943e+01 0 -5 0
159 444 1 4.1499999999999998e-01 7.8582241619759579e+00 8.0648665604498870e-01 1.7449155543106659e+01 3 -1 0
2306 444 1 4.1499999999999998e-01 5.2773336156907478e+00 1.6274591219061634e+00 1.9300957237588236e+01 2 2 0
523 444 2 -8.2999999999999996e-01 2.0676505486301922e-01 1.7829419238058970e+00 1.8130740639133801e+01 -1 -1 0
1662 444 1 4.1499999999999998e-01 1.0366127242356304e+01 7.3761686553619832e+00 2.0830622526630563e+01 0 -4 0
2307 444 1 4.1499999999999998e-01 6.4060205287005170e+00 6.8017701363275995e-01 1.8953656468803000e+01 2 2 0
2305 444 2 -8.2999999999999996e-01 6.1469410533130793e+00 1.3486936015709381e+00 1.9587846140887347e+01 2 2 0
181 444 2 -8.2999999999999996e-01 9.9691770863910489e-01 4.5018560470484159e+00 1.8486389737043876e+01 3 -2 0
2193 444 1 4.1499999999999998e-01 6.3356467303185031e+00 5.0368955898005821e+00 1.6321895707364526e+01 3 5 0
253 444 2 -8.2999999999999996e-01 3.8504895160289592e+00 1.8143522198722806e+00 1.7861146926447081e+01 -1 0 0
2552 444 1 4.1499999999999998e-01 9.6662460896929296e+00 2.6452917790458250e+00 1.7206488189164194e+01 2 5 0
3857 444 1 4.1499999999999998e-01 2.4163995515738894e+00 6.2493403062973796e+00 2.2016831692956622e+01 1 -2 0
4980 444 1 4.1499999999999998e-01 4.1704285471228513e+00 5.3104590988380309e+00 1.7399107014485885e+01 0 -5 0
1602 444 1 4.1499999999999998e-01 9.7638576310824963e+00 2.2933368411029895e+00 2.3900979883368521e+01 -1 -7 0
2208 444 1 4.1499999999999998e-01 6.3737306113205827e+00 5.9141702862901306e+00 2.2377289131699005e+01 -1 -4 0
182 444 1 4.1499999999999998e-01 1.9494921321747358e+00 4.5874432871838664e+00 1.8447545097986016e+01 3 -2 0
2883 444 1 4.1499999999999998e-01 9.8353059903561046e+00 4.5016519167158249e+00 1.8583970876687435e+01 5 0 0
2192 444 1 4.1499999999999998e-01 5.9135004060448848e+00 4.1426471915605694e+00 1.7468197361180547e+01 3 5 0
1053 444 1 4.1499999999999998e-01 6.3396319632764140e+00 3.1233162002136341e+00 1.9546068288197766e+01 0 -1 0
1052 444 1 4.1499999999999998e-01 7.5661108187267354e+00 3.9956946051192030e+00 1.9382970617645896e+01 0 -1 0
1051 444 2 -8.2999999999999996e-01 6.6203995731621106e+00 4.0381613205995226e+00 1.9524602052432794e+01 0 -1 0
525 444 1 4.1499999999999998e-01 8.0160264194489517e-01 1.4926281045010463e+00 1.8822201723901419e+01 -1 -1 0
3491 444 1 4.1499999999999998e-01 4.5262918352342831e+00 7.0025499094497767e-01 2.3957008847092055e+01 -1 4 0
2551 444 2 -8.2999999999999996e-01 8.9043383217758088e+00 2.0755134049927819e+00 1.7101219674543106e+01 2 5 0
3429 444 1 4.1499999999999998e-01 6.6905004586695158e+00 7.5769172555675466e+00 1.7661788085652233e+01 0 0 0
2785 444 2 -8.2999999999999996e-01 4.2323536050820287e+00 3.9118452404735962e+00 2.2282231301421124e+01 3 -4 0
2787 444 1 4.1499999999999998e-01 4.7360298735556903e+00 3.2537761651557986e+00 2.2761279972269065e+01 3 -4 0
2786 444 1 4.1499999999999998e-01 4.8895854020641938e+00 4.4108855715279152e+00 2.1797218776102060e+01 3 -4 0
4453 444 2 -8.2999999999999996e-01 1.0583215590559581e+01 4.5205592948319104e+00 2.1857128686534235e+01 2 3 0
4867 444 2 -8.2999999999999996e-01 4.0461867434236618e+00 7.7098018615468087e+00 1.9411634740746969e+01 1 1 0
632 444 1 4.1499999999999998e-01 2.0913299334333765e-01 5.0384324038884198e+00 2.1435900711914350e+01 -2 4 0
4455 444 1 4.1499999999999998e-01 1.0171407561431334e+01 4.4205244987459373e+00 2.0998851354601907e+01 2 3 0
183 444 1 4.1499999999999998e-01 7.7220755050641343e-01 4.7284385589785600e+00 1.9388829765979818e+01 3 -2 0
255 444 1 4.1499999999999998e-01 3.3237133302488102e+00 2.0437607556280080e+00 1.8626725904639706e+01 -1 0 0
2881 444 2 -8.2999999999999996e-01 9.4752723144299882e+00 4.9993832350646734e+00 1.9318049572308997e+01 5 0 0
2882 444 1 4.1499999999999998e-01 9.5668155965588397e+00 5.9151521424817739e+00 1.9054954430187944e+01 5 0 0
806 444 1 4.1499999999999998e-01 2.7450612923148539e+00 4.3547795889646439e+00 2.2182976944145757e+01 -3 1 0
805 444 2 -8.2999999999999996e-01 1.8382124149156298e+00 4.6557486775375159e+00 2.2125752183767002e+01 -3 1 0
807 444 1 4.1499999999999998e-01 1.4205803588838277e+00 4.3106797384237261e+00 2.2914892705289638e+01 -3 1 0
2191 444 2 -8.2999999999999996e-01 5.5619305320785912e+00 4.6895880174124276e+00 1.6765711626446340e+01 3 5 0
2375 444 1 4.1499999999999998e-01 5.3147277452822923e+00 6.7539532521639378e+00 2.0246316664625919e+01 -3 5 0
2206 444 2 -8.2999999999999996e-01 6.5047563640763499e+00 5.8371658842099112e+00 2.3322347039857419e+01 -1 -4 0
3856 444 2 -8.2999999999999996e-01 2.9731962650115942e+00 7.0275643666525465e+00 2.2040865426484260e+01 1 -2 0
84 444 1 4.1499999999999998e-01 9.8069532846466760e+00 4.8997572487173757e+00 2.3350928462518905e+01 2 2 0
82 444 2 -8.2999999999999996e-01 9.1640264381065908e+00 5.1289282619080510e+00 2.4022015337792254e+01 2 2 0
83 444 1 4.1499999999999998e-01 8.4238923222660365e+00 5.4879955954584752e+00 2.3532623878928902e+01 2 2 0
4732 444 2 -8.2999999999999996e-01 4.0406732440781772e+00 5.4044933839490739e-01 2.1122585251813167e+01 2 1 0
4151 444 1 4.1499999999999998e-01 4.1578400673891369e-01 1.0399822547333217e+00 2.1588389214765527e+01 -3 -7 0
4868 444 1 4.1499999999999998e-01 3.9764507708824719e+00 7.0263261936306360e+00 1.8745129055576971e+01 1 1 0
1696 444 2 -8.2999999999999996e-01 1.1242361674751438e+01 2.2421823319337664e+00 2.2839803360662639e+01 -2 1 0
3490 444 2 -8.2999999999999996e-01 4.7904212372940620e+00 1.6033223417371769e+00 2.4132897745438036e+01 -1 4 0
4734 444 1 4.1499999999999998e-01 4.8674509114695184e+00 8.1437429042769993e-01 2.0725551657970630e+01 2 1 0
2268 444 1 4.1499999999999998e-01 7.8817429176075002e+00 6.9307011821277236e+00 2.1049636329750204e+01 -1 6 0
1697 444 1 4.1499999999999998e-01 1.1129014762801416e+01 3.0447674891918672e+00 2.2330645818189605e+01 -2 1 0
1970 444 1 4.1499999999999998e-01 2.5043595693536149e+00 1.4188408602468443e+00 2.0384495771359720e+01 1 2 0
2376 444 1 4.1499999999999998e-01 6.2745086173314419e+00 5.5832926724759995e+00 2.0229894357182097e+01 -3 5 0
1971 444 1 4.1499999999999998e-01 2.5020096578280056e+00 2.8950248029788312e+00 2.0720309673887549e+01 1 2 0
2374 444 2 -8.2999999999999996e-01 5.9381729421734537e+00 6.2785002922284674e+00 2.0795399922193500e+01 -3 5 0
1969 444 2 -8.2999999999999996e-01 2.2286561503096132e+00 2.2713283050164010e+00 2.0047618912993048e+01 1 2 0
37 444 2 -8.2999999999999996e-01 1.1213605695837147e+01 3.5812231734401374e+00 1.7437189834377545e+01 -3 -2 0
4152 444 1 4.1499999999999998e-01 2.3765274439275308e-01 2.3931961865902474e+00 2.0933426231066321e+01 -3 -7 0
4733 444 1 4.1499999999999998e-01 4.2895634628796806e+00 1.9064108162822649e-01 2.1978108315315865e+01 2 1 0
2207 444 1 4.1499999999999998e-01 5.6813541572644999e+00 6.1410178248585057e+00 2.3704334812375180e+01 -1 -4 0
1660 444 2 -8.2999999999999996e-01 1.1269970180315051e+01 7.4852410084144525e+00 2.0534982418015453e+01 0 -4 0
4269 444 1 4.1499999999999998e-01 1.0524112117699715e+01 7.7575841420912504e+00 1.7672521988097447e+01 6 2 0
524 444 1 4.1499999999999998e-01 3.9244904653007145e-01 2.7166258230340690e+00 1.8030799065628859e+01 -1 -1 0
2266 444 2 -8.2999999999999996e-01 8.7753002489384038e+00 7.2395901503499758e+00 2.1199219651844388e+01 -1 6 0
3858 444 1 4.1499999999999998e-01 3.1573458760058783e+00 7.2193869567895099e+00 2.1121340836554065e+01 1 -2 0
4723 444 2 -8.2999999999999996e-01 3.4120440701427968e-01 7.6607424412251088e+00 2.0168827408981528e+01 8 0 0
2290 444 2 -8.2999999999999996e-01 3.2399103332866218e-03 3.0382049321830129e+00 2.3885373921983572e+01 0 -2 0
3554 444 1 4.1499999999999998e-01 2.6919926140161916e+00 8.7590498764043900e-02 1.8168552203579768e+01 2 3 0
3808 444 2 -8.2999999999999996e-01 5.1966609663395419e-02 5.1803787926553859e+00 2.6784644318531768e+01 3 -3 0
618 444 1 4.1499999999999998e-01 5.2464604687909033e-01 4.8105638903101662e+00 2.9616731765359098e+01 4 2 0
406 444 2 -8.2999999999999996e-01 4.8785817426262801e+00 5.9710296450869578e+00 3.1857444044216574e+01 -1 -1 0
1907 444 1 4.1499999999999998e-01 7.3698234498956072e+00 7.8505681390855275e-01 3.2185250930633366e+01 1 0 0
2813 444 1 4.1499999999999998e-01 7.9342267632489527e+00 6.5355150454487703e+00 3.1339751316104639e+01 4 1 0
1937 444 1 4.1499999999999998e-01 3.6674690285098888e-01 9.2289823882088506e-01 2.9349098619603069e+01 -1 0 0
4857 444 1 4.1499999999999998e-01 3.4267081227289746e+00 9.1552393793355458e-01 2.6808432849941511e+01 2 -3 0
1601 444 1 4.1499999999999998e-01 9.2003004778502362e+00 3.5201746483237564e+00 2.4585937938642150e+01 -1 -7 0
3050 444 1 4.1499999999999998e-01 1.0085055395773672e+01 6.4471677356163886e+00 2.4714213907949603e+01 1 3 0
4611 444 1 4.1499999999999998e-01 4.9313238766804464e+00 8.7230485130523572e-01 3.1730929586044578e+01 1 0 0
1901 444 1 4.1499999999999998e-01 1.0914888115412540e+00 1.9334356637775878e+00 2.4968707372587513e+01 -4 1 0
597 444 1 4.1499999999999998e-01 1.0532710668736943e+01 3.9606263284750374e+00 3.1273683994667916e+01 -1 3 0
5948 444 1 4.1499999999999998e-01 8.6262269403206826e+00 1.0584285714751200e+00 3.0767273642804636e+01 -1 0 0
3049 444 2 -8.2999999999999996e-01 1.0826439262438305e+01 6.9944848666673263e+00 2.4973107333151955e+01 1 3 0
1902 444 1 4.1499999999999998e-01 1.5055902050903880e+00 1.6006191879532594e+00 2.6386328064786760e+01 -4 1 0
1600 444 2 -8.2999999999999996e-01 9.3999069107425992e+00 2.5956527244312837e+00 2.4733071732501564e+01 -1 -7 0
685 444 2 -8.2999999999999996e-01 6.2102473150799966e+00 7.8095828533433631e-01 2.8176701602486091e+01 -6 -1 0
686 444 1 4.1499999999999998e-01 5.7737672341778437e+00 1.6287520105046058e+00 2.8093251880436942e+01 -6 -1 0
4855 444 2 -8.2999999999999996e-01 3.5355366355021047e+00 1.7486394477577780e-01 2.7404931975325812e+01 2 -3 0
2351 444 1 4.1499999999999998e-01 7.4095735484535172e+00 1.9840764971947134e-01 2.5627375560243191e+01 5 -1 0
408 444 1 4.1499999999999998e-01 5.1506348551524148e+00 5.0781493759185139e+00 3.1645350214764512e+01 -1 -1 0
5499 444 1 4.1499999999999998e-01 3.9768340404737512e-01 3.6330081114333246e+00 2.7137649504166646e+01 4 2 0
3090 444 1 4.1499999999999998e-01 6.5491875189256232e+00 6.1102434758954880e+00 2.5153856201436657e+01 -1 4 0
3809 444 1 4.1499999999999998e-01 3.9230286548386395e-01 5.9045618190564291e+00 2.7309965215060075e+01 3 -3 0
2352 444 1 4.1499999999999998e-01 8.0553287061154677e+00 1.4720798553533954e+00 2.5124726650187039e+01 5 -1 0
947 444 1 4.1499999999999998e-01 3.6136173406194216e+00 5.3625171422490292e-01 2.9064575660972107e+01 2 -1 0
1295 444 1 4.1499999999999998e-01 4.7240026895865936e+00 3.9628790143699391e+00 2.8410098625320515e+01 3 0 0
1294 444 2 -8.2999999999999996e-01 5.0405271317614968e+00 3.2866173196024064e+00 2.7811170936369180e+01 3 0 0
1296 444 1 4.1499999999999998e-01 4.3153476652028306e+00 3.1468125809227767e+00 2.7202236064478704e+01 3 0 0
946 444 2 -8.2999999999999996e-01 3.2117255795142556e+00 4.8170568156838961e-01 2.9931604848126163e+01 2 -1 0
3492 444 1 4.1499999999999998e-01 5.5900848572789599e+00 1.5225583382807615e+00 2.4652750756918412e+01 -1 4 0
2350 444 2 -8.2999999999999996e-01 7.2143934954763687e+00 1.0172723109733455e+00 2.5171745747791149e+01 5 -1 0
272 444 1 4.1499999999999998e-01 1.0722453455554193e+01 6.7466270716217176e+00 2.8968696107846309e+01 0 -6 0
1234 444 2 -8.2999999999999996e-01 1.9600398945080251e+00 2.9439261576056035e+00 3.2155319712463609e+01 4 1 0
271 444 2 -8.2999999999999996e-01 1.0356621833666100e+01 6.8086327886815248e+00 2.8086338405276358e+01 0 -6 0
5319 444 1 4.1499999999999998e-01 1.7167150961907598e+00 6.1916620211437907e+00 3.2115968045883534e+01 0 0 0
1236 444 1 4.1499999999999998e-01 1.3923528316914870e+00 2.5163030785405804e+00 3.1514147536048629e+01 4 1 0
4014 444 1 4.1499999999999998e-01 1.0998504039381254e+01 2.2400754000045420e+00 2.5472413433042114e+01 -3 -1 0
5497 444 2 -8.2999999999999996e-01 8.1115830977854753e-01 2.8223848998532599e+00 2.7434567659810899e+01 4 2 0
5498 444 1 4.1499999999999998e-01 6.4798379725548250e-01 2.8011602241917197e+00 2.8377518054302367e+01 4 2 0
977 444 1 4.1499999999999998e-01 3.6261741063269035e+00 3.0175830619519814e+00 2.4884252748203959e+01 3 2 0
5645 444 1 4.1499999999999998e-01 6.9070048494905718e+00 7.2191194994173813e+00 2.8820475250293637e+01 -1 -2 0
978 444 1 4.1499999999999998e-01 2.3911593443056454e+00 3.0224047645402070e+00 2.5759815798974831e+01 3 2 0
2153 444 1 4.1499999999999998e-01 9.7953132531069844e+00 3.1408049357833767e+00 2.8278339629492280e+01 -4 0 0
2152 444 2 -8.2999999999999996e-01 1.0464945716297978e+01 2.4585344583267745e+00 2.8326622569415687e+01 -4 0 0
976 444 2 -8.2999999999999996e-01 3.2154115078037369e+00 3.4857850974368603e+00 2.5611090726838615e+01 3 2 0
2154 444 1 4.1499999999999998e-01 9.9849088560122343e+00 1.6681986527485015e+00 2.8573939760275962e+01 -4 0 0
4235 444 1 4.1499999999999998e-01 6.0660683652523604e+00 2.9400959117508871e+00 3.0975894586456562e+01 2 1 0
3086 444 1 4.1499999999999998e-01 6.7761441460085265e+00 5.2078614624836197e+00 2.9808495085473126e+01 0 1 0
3087 444 1 4.1499999999999998e-01 8.1705230863121461e+00 5.4197078654342912e+00 2.9258291783477340e+01 0 1 0
3085 444 2 -8.2999999999999996e-01 7.4524983027685874e+00 5.8759603925450739e+00 2.9697046748140917e+01 0 1 0
5646 444 1 4.1499999999999998e-01 6.3647139705930575e+00 7.3846327744289386e+00 2.7416758342439408e+01 -1 -2 0
5318 444 1 4.1499999999999998e-01 2.9792901158597473e+00 5.8674837504125028e+00 3.1346092582281369e+01 0 0 0
5317 444 2 -8.2999999999999996e-01 2.0686539504969130e+00 5.5939502255804587e+00 3.1456337648656838e+01 0 0 0
1235 444 1 4.1499999999999998e-01 1.9069341592385987e+00 3.8749986037061532e+00 3.1939644584654726e+01 4 1 0
999 444 1 4.1499999999999998e-01 2.8608710301414160e+00 5.3605121759215653e+00 2.6295809884134144e+01 1 0 0
4013 444 1 4.1499999999999998e-01 1.1290068461577503e+01 2.0041209072454094e+00 2.6939114105798982e+01 -3 -1 0
4609 444 2 -8.2999999999999996e-01 5.7828482549254145e+00 7.5683057341235371e-01 3.1309261351935266e+01 1 0 0
3863 444 1 4.1499999999999998e-01 4.2654118968931147e+00 7.2946897864941107e+00 2.9478166781009648e+01 1 1 0
998 444 1 4.1499999999999998e-01 2.6661159574655411e+00 6.5873879982504286e+00 2.7161108413941104e+01 1 0 0
997 444 2 -8.2999999999999996e-01 3.2607031656360510e+00 6.2013633496729037e+00 2.6517926461698234e+01 1 0 0
3862 444 2 -8.2999999999999996e-01 3.3399969163080985e+00 7.4269161106830879e+00 2.9683971564922903e+01 1 1 0
4234 444 2 -8.2999999999999996e-01 6.2353778887736162e+00 3.7996354730820490e+00 3.1361586136443815e+01 2 1 0
4637 444 1 4.1499999999999998e-01 8.3258773932248875e+00 4.7867684194841988e+00 2.7246553383615538e+01 2 3 0
4638 444 1 4.1499999999999998e-01 9.6726100847561973e+00 5.2248294737357277e+00 2.7781632058105863e+01 2 3 0
4636 444 2 -8.2999999999999996e-01 8.9436592085301143e+00 4.6309209195901104e+00 2.7960898850837346e+01 2 3 0
2437 444 2 -8.2999999999999996e-01 1.0259555470226749e+00 6.9893002406709233e+00 2.8436593818250707e+01 -3 -2 0
3088 444 2 -8.2999999999999996e-01 6.2556890082663035e+00 6.5439511027527146e+00 2.5955097997032478e+01 -1 4 0
3089 444 1 4.1499999999999998e-01 5.3010490964789359e+00 6.5551622102823197e+00 2.5886040143211321e+01 -1 4 0
1938 444 1 4.1499999999999998e-01 1.7736097827040052e+00 1.3647578042028154e+00 2.9691724004585311e+01 -1 0 0
1936 444 2 -8.2999999999999996e-01 8.5884080636087212e-01 1.6411509759814429e+00 2.9746827768745987e+01 -1 0 0
1900 444 2 -8.2999999999999996e-01 1.6369976372130923e+00 1.3329811827038291e+00 2.5476749114233886e+01 -4 1 0