LAMMPS data file via write_data, version 11 Aug 2017, timestep = 5000000

7162 atoms
4 atom types
4000 bonds
1 bond types
2000 angles
1 angle types

0.0000000000000000e+00 4.5679949999999998e+01 xlo xhi
0.0000000000000000e+00 4.6885919999999999e+01 ylo yhi
0.0000000000000000e+00 6.5000000000000000e+01 zlo zhi

Masses

1 1.0079
2 15.9994
3 22.9898
4 107.868

Bond Coeffs # harmonic

1 450 0.9572

Angle Coeffs # harmonic

1 55 104.52

Atoms # full

6011 444 4 0.0000000000000000e+00 1.6907200000000000e+00 0.0000000000000000e+00 0.0000000000000000e+00 0 0 0
6012 444 4 0.0000000000000000e+00 4.2285000000000004e+00 1.4651900000000000e+00 0.0000000000000000e+00 0 0 0
6013 444 4 -3.4720000000000001e-02 1.6907700000000001e+00 0.0000000000000000e+00 7.1781499999999996e+00 0 0 0
6014 444 4 -3.4720000000000001e-02 4.2285500000000003e+00 1.4651900000000000e+00 7.1781499999999996e+00 0 0 0
6015 444 4 0.0000000000000000e+00 2.5366499999999998e+00 1.4651900000000000e+00 2.3926400000000001e+00 0 0 0
6016 444 4 0.0000000000000000e+00 5.0744199999999999e+00 0.0000000000000000e+00 2.3926400000000001e+00 0 0 0
6017 444 4 0.0000000000000000e+00 8.4509000000000001e-01 1.4651900000000000e+00 4.7824200000000001e+00 0 0 0
6018 444 4 0.0000000000000000e+00 3.3828600000000000e+00 0.0000000000000000e+00 4.7824499999999999e+00 0 0 0
6019 444 4 0.0000000000000000e+00 1.6907200000000000e+00 2.9303699999999999e+00 0.0000000000000000e+00 0 0 0
6020 444 4 0.0000000000000000e+00 4.2285000000000004e+00 4.3955599999999997e+00 0.0000000000000000e+00 0 0 0
6021 444 4 -3.4720000000000001e-02 1.6907700000000001e+00 2.9303699999999999e+00 7.1781899999999998e+00 0 0 0
6022 444 4 -3.4720000000000001e-02 4.2285500000000003e+00 4.3955599999999997e+00 7.1781600000000001e+00 0 0 0
6023 444 4 0.0000000000000000e+00 2.5366499999999998e+00 4.3955599999999997e+00 2.3926400000000001e+00 0 0 0
6024 444 4 0.0000000000000000e+00 5.0744199999999999e+00 2.9303699999999999e+00 2.3926400000000001e+00 0 0 0
6025 444 4 0.0000000000000000e+00 8.4509000000000001e-01 4.3955599999999997e+00 4.7824499999999999e+00 0 0 0
6026 444 4 0.0000000000000000e+00 3.3828700000000000e+00 2.9303699999999999e+00 4.7824400000000002e+00 0 0 0
6027 444 4 0.0000000000000000e+00 1.6907200000000000e+00 5.8607399999999998e+00 0.0000000000000000e+00 0 0 0
6028 444 4 0.0000000000000000e+00 4.2285000000000004e+00 7.3259299999999996e+00 0.0000000000000000e+00 0 0 0
6029 444 4 -3.4720000000000001e-02 1.6907700000000001e+00 5.8607399999999998e+00 7.1781499999999996e+00 0 0 0
6030 444 4 -3.4720000000000001e-02 4.2285500000000003e+00 7.3259299999999996e+00 7.1781499999999996e+00 0 0 0
6031 444 4 0.0000000000000000e+00 2.5366499999999998e+00 7.3259299999999996e+00 2.3926400000000001e+00 0 0 0
6032 444 4 0.0000000000000000e+00 5.0744199999999999e+00 5.8607399999999998e+00 2.3926400000000001e+00 0 0 0
6033 444 4 0.0000000000000000e+00 8.4509000000000001e-01 7.3259299999999996e+00 4.7824200000000001e+00 0 0 0
6034 444 4 0.0000000000000000e+00 3.3828600000000000e+00 5.8607399999999998e+00 4.7824499999999999e+00 0 0 0
6139 444 4 0.0000000000000000e+00 6.7662699999999996e+00 0.0000000000000000e+00 0.0000000000000000e+00 0 0 0
6141 444 4 -3.4720000000000001e-02 6.7663200000000003e+00 0.0000000000000000e+00 7.1781499999999996e+00 0 0 0
6143 444 4 0.0000000000000000e+00 7.6121999999999996e+00 1.4651900000000000e+00 2.3926400000000001e+00 0 0 0
6145 444 4 0.0000000000000000e+00 5.9206399999999997e+00 1.4651900000000000e+00 4.7824200000000001e+00 0 0 0
6147 444 4 0.0000000000000000e+00 6.7662699999999996e+00 2.9303699999999999e+00 0.0000000000000000e+00 0 0 0
6149 444 4 -3.4720000000000001e-02 6.7663200000000003e+00 2.9303699999999999e+00 7.1781899999999998e+00 0 0 0
6151 444 4 0.0000000000000000e+00 7.6121999999999996e+00 4.3955599999999997e+00 2.3926400000000001e+00 0 0 0
6153 444 4 0.0000000000000000e+00 5.9206399999999997e+00 4.3955599999999997e+00 4.7824499999999999e+00 0 0 0
6155 444 4 0.0000000000000000e+00 6.7662699999999996e+00 5.8607399999999998e+00 0.0000000000000000e+00 0 0 0
6157 444 4 -3.4720000000000001e-02 6.7663200000000003e+00 5.8607399999999998e+00 7.1781499999999996e+00 0 0 0
6159 444 4 0.0000000000000000e+00 7.6121999999999996e+00 7.3259299999999996e+00 2.3926400000000001e+00 0 0 0
6161 444 4 0.0000000000000000e+00 5.9206399999999997e+00 7.3259299999999996e+00 4.7824200000000001e+00 0 0 0
6140 444 4 0.0000000000000000e+00 9.3040500000000002e+00 1.4651900000000000e+00 0.0000000000000000e+00 0 0 0
6142 444 4 -3.4720000000000001e-02 9.3041000000000000e+00 1.4651900000000000e+00 7.1781499999999996e+00 0 0 0
6144 444 4 0.0000000000000000e+00 1.0149970000000000e+01 0.0000000000000000e+00 2.3926400000000001e+00 0 0 0
6146 444 4 0.0000000000000000e+00 8.4584100000000007e+00 0.0000000000000000e+00 4.7824499999999999e+00 0 0 0
6148 444 4 0.0000000000000000e+00 9.3040500000000002e+00 4.3955599999999997e+00 0.0000000000000000e+00 0 0 0
6150 444 4 -3.4720000000000001e-02 9.3041000000000000e+00 4.3955599999999997e+00 7.1781600000000001e+00 0 0 0
6152 444 4 0.0000000000000000e+00 1.0149970000000000e+01 2.9303699999999999e+00 2.3926400000000001e+00 0 0 0
6154 444 4 0.0000000000000000e+00 8.4584200000000003e+00 2.9303699999999999e+00 4.7824400000000002e+00 0 0 0
6156 444 4 0.0000000000000000e+00 9.3040500000000002e+00 7.3259299999999996e+00 0.0000000000000000e+00 0 0 0
6158 444 4 -3.4720000000000001e-02 9.3041000000000000e+00 7.3259299999999996e+00 7.1781499999999996e+00 0 0 0
6160 444 4 0.0000000000000000e+00 1.0149970000000000e+01 5.8607399999999998e+00 2.3926400000000001e+00 0 0 0
6162 444 4 0.0000000000000000e+00 8.4584100000000007e+00 5.8607399999999998e+00 4.7824499999999999e+00 0 0 0
6273 444 4 0.0000000000000000e+00 1.0996190000000000e+01 1.4651900000000000e+00 4.7824200000000001e+00 0 0 0
6281 444 4 0.0000000000000000e+00 1.0996190000000000e+01 4.3955599999999997e+00 4.7824499999999999e+00 0 0 0
6289 444 4 0.0000000000000000e+00 1.0996190000000000e+01 7.3259299999999996e+00 4.7824200000000001e+00 0 0 0
485 444 1 4.1499999999999998e-01 1.0995082966181036e+01 7.0237368482787073e+00 1.4137426229823173e+01 0 3 0
2087 444 1 4.1499999999999998e-01 3.9302915723665648e+00 6.7855557106277411e+00 1.3396493247014224e+01 1 3 0
4005 444 1 4.1499999999999998e-01 6.9683012030832074e+00 5.0783199666998726e+00 1.4981279108627675e+01 5 -2 0
4003 444 2 -8.2999999999999996e-01 6.0940730272659192e+00 5.4055234795171616e+00 1.5193165049702207e+01 5 -2 0
3546 444 1 4.1499999999999998e-01 6.1738009917235575e+00 4.7335753631920046e+00 9.6828480273625548e+00 0 4 0
4534 444 2 -8.2999999999999996e-01 1.0048687058385635e+01 9.6364165870185636e-01 1.3710620122760314e+01 -2 -3 0
1512 444 1 4.1499999999999998e-01 1.6451497847255538e+00 1.0726467365116272e+00 1.0727120576219317e+01 4 3 0
3544 444 2 -8.2999999999999996e-01 6.3117226287066899e+00 4.8486035029771450e+00 1.0623049065767043e+01 0 4 0
3545 444 1 4.1499999999999998e-01 6.9480840375832997e+00 4.1728211358658980e+00 1.0856703061788046e+01 0 4 0
3527 444 1 4.1499999999999998e-01 2.3862689931063450e+00 2.0141275714899929e+00 1.2876961550569352e+01 -1 -4 0
4042 444 2 -8.2999999999999996e-01 8.5268733011499496e+00 7.2054030552365544e+00 1.2737419652049759e+01 1 2 0
3526 444 2 -8.2999999999999996e-01 2.0963570232847863e+00 1.5816046419169558e+00 1.3680147296368942e+01 -1 -4 0
909 444 1 4.1499999999999998e-01 5.6229851743924959e+00 5.3967393436402169e+00 1.2045877617648824e+01 -1 4 0
908 444 1 4.1499999999999998e-01 4.5161806088957013e+00 4.5889661190231026e+00 1.2689602142539208e+01 -1 4 0
4536 444 1 4.1499999999999998e-01 1.0969572749441923e+01 9.8308964076669292e-01 1.3971048880057690e+01 -2 -3 0
598 444 2 -8.2999999999999996e-01 4.4598980797912295e+00 2.6463863224132909e+00 1.0539869730965643e+01 -1 1 0
907 444 2 -8.2999999999999996e-01 4.9914185116355219e+00 5.4164404137513253e+00 1.2764881955513616e+01 -1 4 0
845 444 1 4.1499999999999998e-01 2.1250921657054428e-01 1.5885983759455129e+00 1.3992754341032738e+01 2 4 0
4695 444 1 4.1499999999999998e-01 3.1707320791984248e+00 3.8222341449778554e+00 1.0794363433037411e+01 -5 -1 0
4004 444 1 4.1499999999999998e-01 5.6345126813704516e+00 5.4233342952136869e+00 1.4353689006340245e+01 5 -2 0
927 444 1 4.1499999999999998e-01 5.4622373877783303e+00 1.3511509786532263e+00 1.3113900330398630e+01 2 1 0
4693 444 2 -8.2999999999999996e-01 2.6916991642594574e+00 4.4708643735553988e+00 1.1310152962902349e+01 -5 -1 0
4694 444 1 4.1499999999999998e-01 3.0929522383433476e+00 5.3077094110080694e+00 1.1075805330235209e+01 -5 -1 0
4043 444 1 4.1499999999999998e-01 9.2492067371851387e+00 6.6097701364457766e+00 1.2936638602376600e+01 1 2 0
87 444 1 4.1499999999999998e-01 1.1317998873150628e+00 3.3467826945742374e+00 1.1251310043762430e+01 -1 -2 0
85 444 2 -8.2999999999999996e-01 7.0217727010740827e-01 2.5253565344746738e+00 1.1012739730502972e+01 -1 -2 0
5871 444 1 4.1499999999999998e-01 6.9717017526275775e+00 2.6326387351428524e+00 1.2262008138162791e+01 4 4 0
4535 444 1 4.1499999999999998e-01 9.9720528552740610e+00 1.6503910205076640e+00 1.3048249866996230e+01 -2 -3 0
975 444 1 4.1499999999999998e-01 1.0806684171139256e+01 3.5259502657390565e+00 1.1748016429729764e+01 -3 -6 0
973 444 2 -8.2999999999999996e-01 1.0545553751007752e+01 2.6108838591925165e+00 1.1644591176907777e+01 -3 -6 0
974 444 1 4.1499999999999998e-01 1.1324957808339930e+01 2.1766109915981713e+00 1.1297936920345997e+01 -3 -6 0
3058 444 2 -8.2999999999999996e-01 2.0038703021977771e+00 7.7499862672710114e+00 1.5282928377726519e+01 -3 0 0
4558 444 2 -8.2999999999999996e-01 7.8134798365615143e+00 2.6616295833378754e+00 1.0726596635798813e+01 0 -1 0
599 444 1 4.1499999999999998e-01 5.0432992103945322e+00 3.3868608535147859e+00 1.0373819849266477e+01 -1 1 0
5869 444 2 -8.2999999999999996e-01 6.6853524723998712e+00 2.5749908726029682e+00 1.3173552215421029e+01 4 4 0
3528 444 1 4.1499999999999998e-01 2.8805970954548457e+00 1.1468678727970474e+00 1.4015115994860173e+01 -1 -4 0
918 444 1 4.1499999999999998e-01 1.3104857247029147e+00 2.6492268371047771e+00 1.5126948432787010e+01 3 0 0
3360 444 1 4.1499999999999998e-01 1.0539699550518208e+01 4.9579511206708755e+00 1.0184552563101617e+01 0 2 0
1374 444 1 4.1499999999999998e-01 2.0492304864528110e+00 2.8088700535673256e-01 1.6241027669322943e+01 4 1 0
600 444 1 4.1499999999999998e-01 4.9812473252893366e+00 2.0445248033338563e+00 1.1071084989347009e+01 -1 1 0
4560 444 1 4.1499999999999998e-01 8.7423271319690325e+00 2.5784060585829089e+00 1.0510845842341432e+01 0 -1 0
1510 444 2 -8.2999999999999996e-01 2.4095600931575416e+00 5.2620469090699329e-01 1.0544610710663932e+01 4 3 0
5870 444 1 4.1499999999999998e-01 7.3828591953444445e+00 3.0011828743387827e+00 1.3671625061856526e+01 4 4 0
3358 444 2 -8.2999999999999996e-01 1.1315272529485091e+01 5.0485437084256430e+00 1.0738187233571168e+01 0 2 0
2461 444 2 -8.2999999999999996e-01 8.6229020191555144e+00 4.4431849495531290e+00 1.5361377223018096e+01 -6 3 0
1511 444 1 4.1499999999999998e-01 3.0762420681595719e+00 1.1408332598966455e+00 1.0238018730340135e+01 4 3 0
3837 444 1 4.1499999999999998e-01 4.1456556889186409e+00 5.4406559628646187e+00 1.5684321076923009e+01 -2 1 0
916 444 2 -8.2999999999999996e-01 1.2058127956165341e+00 3.3942277124173112e+00 1.5718766855130363e+01 3 0 0
4559 444 1 4.1499999999999998e-01 7.4545156170226008e+00 1.7858632520907507e+00 1.0583733397667162e+01 0 -1 0
567 444 1 4.1499999999999998e-01 7.0523265295062787e+00 6.7792774462138068e+00 1.0279034193317026e+01 -2 -4 0
1126 444 2 -8.2999999999999996e-01 3.3547965777572748e+00 7.1454350344111237e+00 1.0505710552984288e+01 -3 -1 0
2463 444 1 4.1499999999999998e-01 9.3947596219859726e+00 4.9564390348804146e+00 1.5122549687271389e+01 -6 3 0
2995 444 2 -8.2999999999999996e-01 8.3596191658916918e+00 5.1268039248287534e-01 1.5649807919656373e+01 0 7 0
2060 444 1 4.1499999999999998e-01 5.4927378062940715e+00 3.4631159030533620e+00 1.5441900992590440e+01 2 2 0
2086 444 2 -8.2999999999999996e-01 3.4863158430502117e+00 7.6227681596127166e+00 1.3261613198089409e+01 1 3 0
2061 444 1 4.1499999999999998e-01 6.1252331461961065e+00 2.0926691943905449e+00 1.5559036309216006e+01 2 2 0
2088 444 1 4.1499999999999998e-01 3.0915596818780440e+00 7.5478432964920055e+00 1.2392829166210008e+01 1 3 0
3836 444 1 4.1499999999999998e-01 2.7590781299029068e+00 6.0246214986109115e+00 1.5516147458248959e+01 -2 1 0
3835 444 2 -8.2999999999999996e-01 3.2220466540056614e+00 5.1948515530312660e+00 1.5631796449431555e+01 -2 1 0
917 444 1 4.1499999999999998e-01 2.0409916325581730e+00 3.8592598522150645e+00 1.5669236517033520e+01 3 0 0
2059 444 2 -8.2999999999999996e-01 5.4734232520991375e+00 2.6628772154554383e+00 1.5966760166311378e+01 2 2 0
1128 444 1 4.1499999999999998e-01 2.8160124051606452e+00 7.2955765716359675e+00 9.7289216069680808e+00 -3 -1 0
484 444 2 -8.2999999999999996e-01 1.0807925734006755e+01 6.0853384913654214e+00 1.4112656177126199e+01 0 3 0
2996 444 1 4.1499999999999998e-01 8.9816358683837887e+00 9.3170875777860951e-01 1.5055044660921272e+01 0 7 0
4728 444 1 4.1499999999999998e-01 4.1718057258393468e+00 1.8049484280314626e-01 1.6046838329756550e+01 2 -1 0
4727 444 1 4.1499999999999998e-01 4.0189833840127545e+00 1.6815742558020863e+00 1.6170535131200946e+01 2 -1 0
925 444 2 -8.2999999999999996e-01 4.7213479988961895e+00 7.5729005091254942e-01 1.2992888925624699e+01 2 1 0
565 444 2 -8.2999999999999996e-01 7.0952454974127583e+00 7.7081127194325134e+00 1.0506311040796650e+01 -2 -4 0
1783 444 2 -8.2999999999999996e-01 7.0881974280654578e+00 1.5548276169741235e-01 1.1161573468988335e+01 1 0 0
566 444 1 4.1499999999999998e-01 7.6932401099326730e+00 7.7451355214759472e+00 1.1252811916449863e+01 -2 -4 0
34 444 2 -8.2999999999999996e-01 2.7714063109125555e+00 5.5267492248691608e-01 1.8945656156808695e+01 -1 4 0
2997 444 1 4.1499999999999998e-01 8.3902607014823882e+00 1.0461850202765259e+00 1.6443953250942794e+01 0 7 0
375 444 1 4.1499999999999998e-01 7.9632354677824431e+00 4.9725688665699330e+00 1.8197240431962094e+01 4 0 0
373 444 2 -8.2999999999999996e-01 8.7842360200292102e+00 4.4815619296481515e+00 1.8164044022679530e+01 4 0 0
1413 444 1 4.1499999999999998e-01 4.6758599992575736e+00 6.8112931267408161e-01 1.9273779312442926e+01 2 1 0
2770 444 2 -8.2999999999999996e-01 8.2414130479445316e+00 1.9675255182376379e+00 2.1036223838049935e+01 -3 4 0
5720 444 1 4.1499999999999998e-01 7.3974678722672094e-01 7.2752115905491144e-01 2.3161446222427422e+01 2 -1 0
2462 444 1 4.1499999999999998e-01 8.5904648596173558e+00 4.4890367573550263e+00 1.6316928382413860e+01 -6 3 0
374 444 1 4.1499999999999998e-01 9.4087891520554692e+00 5.0255764613242828e+00 1.8643849634502963e+01 4 0 0
4730 444 1 4.1499999999999998e-01 1.1133398714459274e+01 6.1986930589649756e+00 1.9990972747927472e+01 5 -1 0
1490 444 1 4.1499999999999998e-01 9.7284592379960255e+00 7.6060500283955603e+00 1.7603991428181171e+01 5 2 0
2869 444 2 -8.2999999999999996e-01 8.7471995188973040e+00 1.8351295155913190e+00 1.8053631042132540e+01 0 -4 0
4776 444 1 4.1499999999999998e-01 7.5061184160512107e-01 2.0855407752560984e+00 2.0665012239240951e+01 1 3 0
4775 444 1 4.1499999999999998e-01 2.1049081802961611e+00 1.6125490720338351e+00 2.0181219221797914e+01 1 3 0
5215 444 2 -8.2999999999999996e-01 1.9291609968691595e-01 4.2742622044233540e+00 1.7880595706939982e+01 4 2 0
5697 444 1 4.1499999999999998e-01 5.8919108746851565e+00 3.3614159333772240e+00 1.9912012807904603e+01 -1 -2 0
5696 444 1 4.1499999999999998e-01 5.1841090879714375e+00 3.5438457283526552e+00 2.1237769585606245e+01 -1 -2 0
2254 444 2 -8.2999999999999996e-01 4.6108955817241029e+00 6.2597015110619614e+00 2.0022054133397592e+01 3 0 0
2255 444 1 4.1499999999999998e-01 4.4390323463626711e+00 5.4176986965245684e+00 2.0443630412026273e+01 3 0 0
4731 444 1 4.1499999999999998e-01 1.0838426248220028e+01 4.7499284174147363e+00 2.0316498933960602e+01 5 -1 0
468 444 1 4.1499999999999998e-01 1.1087913704933431e+01 2.4300417472494207e+00 2.2245704310454144e+01 1 1 0
1416 444 1 4.1499999999999998e-01 3.0447815500173840e+00 3.5735991018663671e+00 2.0966439484499176e+01 0 2 0
4726 444 2 -8.2999999999999996e-01 3.5351998418612598e+00 8.6109101082275563e-01 1.6265364279802913e+01 2 -1 0
668 444 1 4.1499999999999998e-01 3.7219379598240652e+00 1.0127696455500244e+00 2.1533254617258411e+01 1 0 0
466 444 2 -8.2999999999999996e-01 1.0249412806538308e+01 2.8237234435534901e+00 2.2486874007633414e+01 1 1 0
3462 444 1 4.1499999999999998e-01 2.8251430682947802e+00 6.0996920997202881e+00 1.8140536405073338e+01 -4 -2 0
4632 444 1 4.1499999999999998e-01 6.0070691640349922e+00 4.9903359636436617e+00 1.7919981971375439e+01 -2 7 0
3461 444 1 4.1499999999999998e-01 1.3877645114219057e+00 5.6263386236510513e+00 1.8098411578311708e+01 -4 -2 0
3460 444 2 -8.2999999999999996e-01 1.9347349798052895e+00 6.3989525905056341e+00 1.7956557125364814e+01 -4 -2 0
1412 444 1 4.1499999999999998e-01 5.6391212782198528e+00 1.3666654180449875e+00 2.0219328393490311e+01 2 1 0
1411 444 2 -8.2999999999999996e-01 5.5617942682595523e+00 6.1611328757585893e-01 1.9630325880893679e+01 2 1 0
4729 444 2 -8.2999999999999996e-01 1.0863105873235877e+01 5.3726389870071491e+00 1.9589962891366170e+01 5 -1 0
2771 444 1 4.1499999999999998e-01 7.5767140662584564e+00 2.6463113965123819e+00 2.1153091685461508e+01 -3 4 0
4631 444 1 4.1499999999999998e-01 5.3225361045844117e+00 3.7539662380458809e+00 1.7377119676595324e+01 -2 7 0
5695 444 2 -8.2999999999999996e-01 6.0295451844959684e+00 3.3052263596447573e+00 2.0857597993679146e+01 -1 -2 0
4630 444 2 -8.2999999999999996e-01 5.6142294481333659e+00 4.1611887578199429e+00 1.8192789092367665e+01 -2 7 0
667 444 2 -8.2999999999999996e-01 4.1175629463384391e+00 6.6002764090983046e-01 2.2330302799472285e+01 1 0 0
669 444 1 4.1499999999999998e-01 4.6015211428858889e+00 1.3963931092994120e+00 2.2704178201851015e+01 1 0 0
467 444 1 4.1499999999999998e-01 9.6679408661995812e+00 2.6169954860340057e+00 2.1755173404008698e+01 1 1 0
2256 444 1 4.1499999999999998e-01 5.4409768626411559e+00 6.1330233166777433e+00 1.9562543842174524e+01 3 0 0
2024 444 1 4.1499999999999998e-01 7.6440601491336793e+00 6.2247783219859842e+00 2.2015605646867549e+01 -3 -2 0
3161 444 1 4.1499999999999998e-01 5.9411270342569766e+00 7.1550999850819981e+00 1.7544957418784502e+01 -4 2 0
349 444 2 -8.2999999999999996e-01 2.0696112659730930e+00 7.5562559082446619e+00 2.2636419239494476e+01 6 2 0
1415 444 1 4.1499999999999998e-01 3.2425413052161853e+00 4.2268287366922177e+00 2.2317763761670143e+01 0 2 0
3160 444 2 -8.2999999999999996e-01 6.5483053643890043e+00 6.5219582013355835e+00 1.7927968909453071e+01 -4 2 0
1414 444 2 -8.2999999999999996e-01 3.6613006058916628e+00 4.1098480814631024e+00 2.1465010571636032e+01 0 2 0
2380 444 2 -8.2999999999999996e-01 6.8902568303200802e+00 7.5879731798167169e+00 2.3444507489997271e+01 4 0 0
351 444 1 4.1499999999999998e-01 1.5075627670054699e+00 7.1536003960994963e+00 2.3298387651560358e+01 6 2 0
2504 444 1 4.1499999999999998e-01 1.0322346074931671e+01 4.5775598580394155e+00 2.3661971451549913e+01 6 5 0
3162 444 1 4.1499999999999998e-01 7.3801770587809417e+00 6.9919249426949026e+00 1.7985870242612119e+01 -4 2 0
350 444 1 4.1499999999999998e-01 1.4881664719272671e+00 7.7163457997071587e+00 2.1893098843792732e+01 6 2 0
2871 444 1 4.1499999999999998e-01 8.2894288083969290e+00 1.7199779040286973e+00 1.8886348227196358e+01 0 -4 0
2023 444 2 -8.2999999999999996e-01 7.6390408119203030e+00 6.1510873264421795e+00 2.1061259383244717e+01 -3 -2 0
2870 444 1 4.1499999999999998e-01 8.8574269493312006e+00 2.7822172809672669e+00 1.7969330895464232e+01 0 -4 0
5217 444 1 4.1499999999999998e-01 4.7550914968197072e-01 3.9194298905025104e+00 1.7037703627709472e+01 4 2 0
4774 444 2 -8.2999999999999996e-01 1.6564993978912008e+00 2.3730105277486517e+00 2.0551165823709695e+01 1 3 0
2845 444 2 -8.2999999999999996e-01 1.1016893464669392e+01 7.0559074200805538e+00 2.1947420432743037e+01 1 3 0
2025 444 1 4.1499999999999998e-01 7.1710420687471865e+00 5.3346849585636171e+00 2.0886055799397170e+01 -3 -2 0
5767 444 2 -8.2999999999999996e-01 3.2170176306791509e-01 7.5421833065520589e+00 2.0258454669542719e+01 0 -1 0
2847 444 1 4.1499999999999998e-01 1.0704880679962137e+01 6.5688314982029787e+00 2.2710072558078213e+01 1 3 0
1429 444 2 -8.2999999999999996e-01 2.4181347447802891e-02 2.3864006436052247e+00 2.3451607542950331e+01 -1 -2 0
528 444 1 4.1499999999999998e-01 1.0996925980978192e+01 2.4184089744213026e+00 1.8313161413274514e+01 2 -2 0
5769 444 1 4.1499999999999998e-01 1.1126500286679804e+00 7.0675323207392964e+00 2.0002839456564974e+01 0 -1 0
4864 444 2 -8.2999999999999996e-01 8.3972684088809064e+00 1.8445674886689560e+00 2.4271830152203361e+01 1 -6 0
230 444 1 4.1499999999999998e-01 1.1188020502411726e+01 2.1236633529368482e-01 1.6888400488302306e+01 -1 2 0
2992 444 2 -8.2999999999999996e-01 1.1204080789531980e+01 7.6656260878832398e+00 1.6761080529723479e+01 3 -1 0
3871 444 2 -8.2999999999999996e-01 5.5791298736678812e+00 2.4218698551279139e+00 2.3794202614851791e+01 2 -2 0
2503 444 2 -8.2999999999999996e-01 1.0165747022203698e+01 5.4519912585309465e+00 2.4018452748603746e+01 6 5 0
3872 444 1 4.1499999999999998e-01 5.8699964062735397e+00 3.3148583044506816e+00 2.3979136543645250e+01 2 -2 0
4866 444 1 4.1499999999999998e-01 7.5784640437709312e+00 1.8750143705025448e+00 2.3776992199471497e+01 1 -6 0
2772 444 1 4.1499999999999998e-01 7.9384160455221400e+00 1.2390752532136264e+00 2.1578244185097223e+01 -3 4 0
4865 444 1 4.1499999999999998e-01 9.0399223390754528e+00 2.2621205499816228e+00 2.3698351127221631e+01 1 -6 0
36 444 1 4.1499999999999998e-01 2.9686781564883709e+00 7.9289216558365494e-01 1.8040331845571135e+01 -1 4 0
5721 444 1 4.1499999999999998e-01 1.7517362155729499e+00 1.6628112139434689e-01 2.4137551950697013e+01 2 -1 0
5933 444 1 4.1499999999999998e-01 7.5042845029425518e+00 7.7124252004780809e+00 2.0846845795196614e+01 2 0 0
3396 444 1 4.1499999999999998e-01 6.5825001014042659e+00 1.4210902188674623e-01 2.2196365497014799e+01 4 -1 0
1440 444 1 4.1499999999999998e-01 1.0770859969173726e+01 1.5392606099130566e+00 2.4801454630620480e+01 4 0 0
1362 444 1 4.1499999999999998e-01 5.5796959031107916e+00 6.4892095686595441e-01 2.9886876926331517e+01 1 3 0
5454 444 1 4.1499999999999998e-01 1.1419492987920114e+01 3.8358093669185123e-01 2.8278274400723085e+01 -4 -1 0
886 444 2 -8.2999999999999996e-01 2.3115481960599142e+00 4.8762707923974094e-02 3.1601682207136871e+01 3 7 0
2174 444 1 4.1499999999999998e-01 8.3138561636193611e+00 7.7191819349811475e-01 2.5409212284001367e+01 0 -1 0
5452 444 2 -8.2999999999999996e-01 1.0913243070032628e+01 1.1886625711089838e+00 2.8169709002315454e+01 -4 -1 0
2785 444 2 -8.2999999999999996e-01 1.6553433973404084e+00 7.3227927610787029e+00 3.1715390829817196e+01 -2 1 0
377 444 1 4.1499999999999998e-01 9.4372859266497979e+00 6.1256366294088922e+00 3.0230184319003133e+01 6 1 0
1481 444 1 4.1499999999999998e-01 6.2920369493156896e+00 6.0711577788661337e+00 2.4530404129979146e+01 0 -2 0
888 444 1 4.1499999999999998e-01 2.6495165810706229e+00 8.9816168690124742e-01 3.1317901820832684e+01 3 7 0
1439 444 1 4.1499999999999998e-01 1.1386862192071193e+01 1.8228248602541228e+00 2.6154978820634920e+01 4 0 0
3121 444 2 -8.2999999999999996e-01 2.1821488623041150e+00 3.4582840007565219e+00 2.4466887641134608e+01 4 -1 0
3123 444 1 4.1499999999999998e-01 1.2769668480731589e+00 3.1471146038500031e+00 2.4459711040389088e+01 4 -1 0
2829 444 1 4.1499999999999998e-01 5.5140073337463527e+00 5.1811482571141081e+00 2.9366887223188783e+01 -2 2 0
4679 444 1 4.1499999999999998e-01 9.0328643101886907e+00 3.7129727547308561e-01 3.0897707489479259e+01 1 2 0
376 444 2 -8.2999999999999996e-01 9.3970150666461976e+00 6.3380774824935546e+00 2.9297725363455374e+01 6 1 0
378 444 1 4.1499999999999998e-01 9.7262745200627254e+00 5.5539222329508569e+00 2.8858497918449569e+01 6 1 0
2055 444 1 4.1499999999999998e-01 2.8047020727873635e+00 5.6972870192340013e+00 2.9335369477041027e+01 -4 1 0
2054 444 1 4.1499999999999998e-01 1.7064317664257262e+00 5.9567761456745680e+00 3.0344509267932775e+01 -4 1 0
1361 444 1 4.1499999999999998e-01 5.4991556043149883e+00 2.7509069043047407e-01 3.1351683922150492e+01 1 3 0
2173 444 2 -8.2999999999999996e-01 8.1877340080534484e+00 1.4050840510156995e-01 2.6117482535421640e+01 0 -1 0
1482 444 1 4.1499999999999998e-01 5.3565362137437624e+00 5.3853567798553410e+00 2.5503240688505972e+01 0 -2 0
1480 444 2 -8.2999999999999996e-01 6.1515685793171144e+00 5.2430770580781800e+00 2.4989516149261124e+01 0 -2 0
885 444 1 4.1499999999999998e-01 8.2181409273842974e+00 4.5937662082622879e+00 3.1565717380008891e+01 1 0 0
2831 444 1 4.1499999999999998e-01 9.3469374373661331e+00 2.1044158819068022e+00 3.2102004663247044e+01 -1 -1 0
5248 444 2 -8.2999999999999996e-01 4.1463917808177699e+00 5.9644588863601440e+00 2.6625366780408683e+01 2 1 0
2505 444 1 4.1499999999999998e-01 1.0521718947898728e+01 5.4164966152214111e+00 2.4906290784989615e+01 6 5 0
4670 444 1 4.1499999999999998e-01 6.5885452948236729e+00 3.8170021318400504e+00 2.6086233658233244e+01 2 3 0
592 444 2 -8.2999999999999996e-01 1.5258131058930158e+00 5.3831906516549619e+00 2.6581638072438313e+01 -1 0 0
594 444 1 4.1499999999999998e-01 1.2639214988140715e+00 5.7738924800249789e+00 2.7415302857546983e+01 -1 0 0
3122 444 1 4.1499999999999998e-01 2.1447337271875382e+00 4.2946543022479480e+00 2.4930910153219028e+01 4 -1 0
5453 444 1 4.1499999999999998e-01 1.0031656309601741e+01 9.5927934915160296e-01 2.8463681712394077e+01 -4 -1 0
4523 444 1 4.1499999999999998e-01 9.1496795300939979e+00 2.4980704563832887e+00 3.0084340470343331e+01 -5 4 0
3205 444 2 -8.2999999999999996e-01 3.7355127775898076e+00 1.4321428410017112e+00 2.6183381074999673e+01 0 -1 0
4033 444 2 -8.2999999999999996e-01 2.7805829250556791e+00 2.4841253749213208e+00 3.0465367741679682e+01 0 -1 0
2053 444 2 -8.2999999999999996e-01 1.9381884912734322e+00 5.3936933165041818e+00 2.9605957005643024e+01 -4 1 0
4035 444 1 4.1499999999999998e-01 3.4949355633209351e+00 2.6083432924564525e+00 2.9840465896282314e+01 0 -1 0
3207 444 1 4.1499999999999998e-01 3.1377706601458009e+00 7.3856356966358960e-01 2.6462460638951672e+01 0 -1 0
4524 444 1 4.1499999999999998e-01 9.9827772558871519e+00 2.5326700541099836e+00 2.8820755867181276e+01 -5 4 0
2827 444 2 -8.2999999999999996e-01 4.8188606831038294e+00 5.8222631847369168e+00 2.9218649050210253e+01 -2 2 0
2828 444 1 4.1499999999999998e-01 5.1882846523670736e+00 6.6513821080325446e+00 2.9522490330310077e+01 -2 2 0
3873 444 1 4.1499999999999998e-01 4.8608562813209080e+00 2.2713177390477113e+00 2.4408734394361350e+01 2 -2 0
3877 444 2 -8.2999999999999996e-01 7.0978091738985762e+00 4.2090719883702041e+00 2.9328808373678992e+01 5 0 0
3879 444 1 4.1499999999999998e-01 8.0120435949868902e+00 4.3947784598569957e+00 2.9114516984525753e+01 5 0 0
4522 444 2 -8.2999999999999996e-01 9.4724904818986353e+00 3.0918714959320770e+00 2.9406531368961655e+01 -5 4 0
4034 444 1 4.1499999999999998e-01 2.1162247096401430e+00 3.1200490625065838e+00 3.0199921982953761e+01 0 -1 0
2543 444 1 4.1499999999999998e-01 4.5587924784692317e+00 2.0899287672258056e+00 2.7861936484106362e+01 2 2 0
2544 444 1 4.1499999999999998e-01 6.0052974413247053e+00 2.5305404544982233e+00 2.7788591172332548e+01 2 2 0
2542 444 2 -8.2999999999999996e-01 5.3738523695940854e+00 2.0984764181393465e+00 2.8363769045828196e+01 2 2 0
4671 444 1 4.1499999999999998e-01 7.7913395079197736e+00 2.8993691720724803e+00 2.6030277787210899e+01 2 3 0
3206 444 1 4.1499999999999998e-01 3.1704144630581261e+00 2.0826302104365535e+00 2.5766533113331224e+01 0 -1 0
2786 444 1 4.1499999999999998e-01 7.2016000465381957e-01 7.2598097361606495e+00 3.1909549607261411e+01 -2 1 0
3878 444 1 4.1499999999999998e-01 7.0178931743016673e+00 3.2596372865409862e+00 2.9237051146925523e+01 5 0 0
3542 444 1 4.1499999999999998e-01 6.5187715244692246e-02 4.8348244156279021e+00 2.9197348329232632e+01 2 -2 0
4678 444 2 -8.2999999999999996e-01 8.5239558053010480e+00 1.1815956770383520e+00 3.0923407539655056e+01 1 2 0
593 444 1 4.1499999999999998e-01 2.4818546388110190e+00 5.4301986463146852e+00 2.6584394443799777e+01 -1 0 0
4680 444 1 4.1499999999999998e-01 7.6268248342419991e+00 8.9616138865996064e-01 3.1096367469855149e+01 1 2 0
4669 444 2 -8.2999999999999996e-01 6.9399733698806898e+00 3.0063747492252628e+00 2.6454492223648145e+01 2 3 0
1067 444 1 4.1499999999999998e-01 2.8463896015144172e+00 3.0203679833753228e+00 3.2429948376312907e+01 0 -1 0
5250 444 1 4.1499999999999998e-01 4.2328688041412397e+00 6.9157848641472830e+00 2.6564273696003205e+01 2 1 0
5249 444 1 4.1499999999999998e-01 4.5536579797409917e+00 5.7396922330646456e+00 2.7461934764840223e+01 2 1 0
1360 444 2 -8.2999999999999996e-01 6.0341459145822878e+00 1.5244671143336988e-01 3.0567480079915644e+01 1 3 0
1602 444 1 4.1499999999999998e-01 4.6835991293867596e-01 2.7193880162072132e-01 3.1534819269763609e+01 1 -1 0
884 444 1 4.1499999999999998e-01 9.5332035570128539e+00 4.8902310650465415e+00 3.2254639618669735e+01 1 0 0
883 444 2 -8.2999999999999996e-01 8.7879935048704478e+00 5.3157945281239378e+00 3.1830623405026110e+01 1 0 0
2175 444 1 4.1499999999999998e-01 7.6025738491114287e+00 5.8314096425227591e-01 2.6732214827329241e+01 0 -1 0
4102 444 2 -8.2999999999999996e-01 3.7976619592402133e-01 7.7177534831531158e+00 2.5048901603108462e+01 1 2 0
2333 444 1 4.1499999999999998e-01 1.2125371031932186e+00 3.8001559105624017e+00 3.5745931338571673e+01 1 4 0
3095 444 1 4.1499999999999998e-01 2.5373677894664048e-01 3.3135522641455450e+00 3.2817320327645739e+01 -2 2 0
3767 444 1 4.1499999999999998e-01 7.7060925630583466e+00 1.0792897735909636e-01 3.4300717430517984e+01 0 -1 0
1932 444 1 4.1499999999999998e-01 2.8568835943319382e-01 1.4350629292798489e+00 3.5105796000465752e+01 4 5 0
2332 444 2 -8.2999999999999996e-01 7.2525699617873363e-01 4.4297850007242046e+00 3.5214558249571219e+01 1 4 0