LAMMPS data file via write_data, version 11 Aug 2017, timestep = 500000

7154 atoms
4 atom types
4000 bonds
1 bond types
2000 angles
1 angle types

0.0000000000000000e+00 4.5679949999999998e+01 xlo xhi
0.0000000000000000e+00 4.6885919999999999e+01 ylo yhi
0.0000000000000000e+00 6.5000000000000000e+01 zlo zhi

Masses

1 1.0079
2 15.9994
3 22.9898
4 107.868

Bond Coeffs # harmonic

1 450 0.9572

Angle Coeffs # harmonic

1 55 104.52

Atoms # full

6003 444 4 0.0000000000000000e+00 1.6907200000000000e+00 0.0000000000000000e+00 0.0000000000000000e+00 0 0 0
6004 444 4 0.0000000000000000e+00 4.2285000000000004e+00 1.4651900000000000e+00 0.0000000000000000e+00 0 0 0
6005 444 4 -6.9400000000000000e-03 1.6907700000000001e+00 0.0000000000000000e+00 7.1781499999999996e+00 0 0 0
6006 444 4 -6.9400000000000000e-03 4.2285500000000003e+00 1.4651900000000000e+00 7.1781499999999996e+00 0 0 0
6007 444 4 0.0000000000000000e+00 2.5366499999999998e+00 1.4651900000000000e+00 2.3926400000000001e+00 0 0 0
6008 444 4 0.0000000000000000e+00 5.0744199999999999e+00 0.0000000000000000e+00 2.3926400000000001e+00 0 0 0
6009 444 4 0.0000000000000000e+00 8.4509000000000001e-01 1.4651900000000000e+00 4.7824200000000001e+00 0 0 0
6010 444 4 0.0000000000000000e+00 3.3828600000000000e+00 0.0000000000000000e+00 4.7824499999999999e+00 0 0 0
6011 444 4 0.0000000000000000e+00 1.6907200000000000e+00 2.9303699999999999e+00 0.0000000000000000e+00 0 0 0
6012 444 4 0.0000000000000000e+00 4.2285000000000004e+00 4.3955599999999997e+00 0.0000000000000000e+00 0 0 0
6013 444 4 -6.9400000000000000e-03 1.6907700000000001e+00 2.9303699999999999e+00 7.1781899999999998e+00 0 0 0
6014 444 4 -6.9400000000000000e-03 4.2285500000000003e+00 4.3955599999999997e+00 7.1781600000000001e+00 0 0 0
6015 444 4 0.0000000000000000e+00 2.5366499999999998e+00 4.3955599999999997e+00 2.3926400000000001e+00 0 0 0
6016 444 4 0.0000000000000000e+00 5.0744199999999999e+00 2.9303699999999999e+00 2.3926400000000001e+00 0 0 0
6017 444 4 0.0000000000000000e+00 8.4509000000000001e-01 4.3955599999999997e+00 4.7824499999999999e+00 0 0 0
6018 444 4 0.0000000000000000e+00 3.3828700000000000e+00 2.9303699999999999e+00 4.7824400000000002e+00 0 0 0
6019 444 4 0.0000000000000000e+00 1.6907200000000000e+00 5.8607399999999998e+00 0.0000000000000000e+00 0 0 0
6020 444 4 0.0000000000000000e+00 4.2285000000000004e+00 7.3259299999999996e+00 0.0000000000000000e+00 0 0 0
6021 444 4 -6.9400000000000000e-03 1.6907700000000001e+00 5.8607399999999998e+00 7.1781499999999996e+00 0 0 0
6022 444 4 -6.9400000000000000e-03 4.2285500000000003e+00 7.3259299999999996e+00 7.1781499999999996e+00 0 0 0
6023 444 4 0.0000000000000000e+00 2.5366499999999998e+00 7.3259299999999996e+00 2.3926400000000001e+00 0 0 0
6024 444 4 0.0000000000000000e+00 5.0744199999999999e+00 5.8607399999999998e+00 2.3926400000000001e+00 0 0 0
6025 444 4 0.0000000000000000e+00 8.4509000000000001e-01 7.3259299999999996e+00 4.7824200000000001e+00 0 0 0
6026 444 4 0.0000000000000000e+00 3.3828600000000000e+00 5.8607399999999998e+00 4.7824499999999999e+00 0 0 0
6131 444 4 0.0000000000000000e+00 6.7662699999999996e+00 0.0000000000000000e+00 0.0000000000000000e+00 0 0 0
6133 444 4 -6.9400000000000000e-03 6.7663200000000003e+00 0.0000000000000000e+00 7.1781499999999996e+00 0 0 0
6135 444 4 0.0000000000000000e+00 7.6121999999999996e+00 1.4651900000000000e+00 2.3926400000000001e+00 0 0 0
6137 444 4 0.0000000000000000e+00 5.9206399999999997e+00 1.4651900000000000e+00 4.7824200000000001e+00 0 0 0
6139 444 4 0.0000000000000000e+00 6.7662699999999996e+00 2.9303699999999999e+00 0.0000000000000000e+00 0 0 0
6141 444 4 -6.9400000000000000e-03 6.7663200000000003e+00 2.9303699999999999e+00 7.1781899999999998e+00 0 0 0
6143 444 4 0.0000000000000000e+00 7.6121999999999996e+00 4.3955599999999997e+00 2.3926400000000001e+00 0 0 0
6145 444 4 0.0000000000000000e+00 5.9206399999999997e+00 4.3955599999999997e+00 4.7824499999999999e+00 0 0 0
6147 444 4 0.0000000000000000e+00 6.7662699999999996e+00 5.8607399999999998e+00 0.0000000000000000e+00 0 0 0
6149 444 4 -6.9400000000000000e-03 6.7663200000000003e+00 5.8607399999999998e+00 7.1781499999999996e+00 0 0 0
6151 444 4 0.0000000000000000e+00 7.6121999999999996e+00 7.3259299999999996e+00 2.3926400000000001e+00 0 0 0
6153 444 4 0.0000000000000000e+00 5.9206399999999997e+00 7.3259299999999996e+00 4.7824200000000001e+00 0 0 0
6132 444 4 0.0000000000000000e+00 9.3040500000000002e+00 1.4651900000000000e+00 0.0000000000000000e+00 0 0 0
6134 444 4 -6.9400000000000000e-03 9.3041000000000000e+00 1.4651900000000000e+00 7.1781499999999996e+00 0 0 0
6136 444 4 0.0000000000000000e+00 1.0149970000000000e+01 0.0000000000000000e+00 2.3926400000000001e+00 0 0 0
6138 444 4 0.0000000000000000e+00 8.4584100000000007e+00 0.0000000000000000e+00 4.7824499999999999e+00 0 0 0
6140 444 4 0.0000000000000000e+00 9.3040500000000002e+00 4.3955599999999997e+00 0.0000000000000000e+00 0 0 0
6142 444 4 -6.9400000000000000e-03 9.3041000000000000e+00 4.3955599999999997e+00 7.1781600000000001e+00 0 0 0
6144 444 4 0.0000000000000000e+00 1.0149970000000000e+01 2.9303699999999999e+00 2.3926400000000001e+00 0 0 0
6146 444 4 0.0000000000000000e+00 8.4584200000000003e+00 2.9303699999999999e+00 4.7824400000000002e+00 0 0 0
6148 444 4 0.0000000000000000e+00 9.3040500000000002e+00 7.3259299999999996e+00 0.0000000000000000e+00 0 0 0
6150 444 4 -6.9400000000000000e-03 9.3041000000000000e+00 7.3259299999999996e+00 7.1781499999999996e+00 0 0 0
6152 444 4 0.0000000000000000e+00 1.0149970000000000e+01 5.8607399999999998e+00 2.3926400000000001e+00 0 0 0
6154 444 4 0.0000000000000000e+00 8.4584100000000007e+00 5.8607399999999998e+00 4.7824499999999999e+00 0 0 0
6265 444 4 0.0000000000000000e+00 1.0996190000000000e+01 1.4651900000000000e+00 4.7824200000000001e+00 0 0 0
6273 444 4 0.0000000000000000e+00 1.0996190000000000e+01 4.3955599999999997e+00 4.7824499999999999e+00 0 0 0
6281 444 4 0.0000000000000000e+00 1.0996190000000000e+01 7.3259299999999996e+00 4.7824200000000001e+00 0 0 0
6027 444 4 0.0000000000000000e+00 1.6907200000000000e+00 8.7911099999999998e+00 0.0000000000000000e+00 0 0 0
6028 444 4 0.0000000000000000e+00 4.2285000000000004e+00 1.0256300000000000e+01 0.0000000000000000e+00 0 0 0
6029 444 4 -6.9400000000000000e-03 1.6907700000000001e+00 8.7911099999999998e+00 7.1781899999999998e+00 0 0 0
6030 444 4 -6.9400000000000000e-03 4.2285500000000003e+00 1.0256300000000000e+01 7.1781600000000001e+00 0 0 0
6031 444 4 0.0000000000000000e+00 2.5366499999999998e+00 1.0256300000000000e+01 2.3926400000000001e+00 0 0 0
6032 444 4 0.0000000000000000e+00 5.0744199999999999e+00 8.7911099999999998e+00 2.3926400000000001e+00 0 0 0
6033 444 4 0.0000000000000000e+00 8.4509000000000001e-01 1.0256300000000000e+01 4.7824499999999999e+00 0 0 0
6034 444 4 0.0000000000000000e+00 3.3828700000000000e+00 8.7911099999999998e+00 4.7824400000000002e+00 0 0 0
6155 444 4 0.0000000000000000e+00 6.7662699999999996e+00 8.7911099999999998e+00 0.0000000000000000e+00 0 0 0
6157 444 4 -6.9400000000000000e-03 6.7663200000000003e+00 8.7911099999999998e+00 7.1781899999999998e+00 0 0 0
6159 444 4 0.0000000000000000e+00 7.6121999999999996e+00 1.0256300000000000e+01 2.3926400000000001e+00 0 0 0
6161 444 4 0.0000000000000000e+00 5.9206399999999997e+00 1.0256300000000000e+01 4.7824499999999999e+00 0 0 0
6156 444 4 0.0000000000000000e+00 9.3040500000000002e+00 1.0256300000000000e+01 0.0000000000000000e+00 0 0 0
6158 444 4 -6.9400000000000000e-03 9.3041000000000000e+00 1.0256300000000000e+01 7.1781600000000001e+00 0 0 0
6160 444 4 0.0000000000000000e+00 1.0149970000000000e+01 8.7911099999999998e+00 2.3926400000000001e+00 0 0 0
6162 444 4 0.0000000000000000e+00 8.4584200000000003e+00 8.7911099999999998e+00 4.7824400000000002e+00 0 0 0
6289 444 4 0.0000000000000000e+00 1.0996190000000000e+01 1.0256300000000000e+01 4.7824499999999999e+00 0 0 0
3485 444 1 4.1499999999999998e-01 8.4551363235238775e+00 5.8696019807047817e+00 9.6222404382796878e+00 -3 4 0
3484 444 2 -8.2999999999999996e-01 8.6088846760429423e+00 5.0085454276238197e+00 1.0011053458827949e+01 -3 4 0
3486 444 1 4.1499999999999998e-01 7.7749398218978696e+00 4.7776332624031479e+00 1.0420258166315401e+01 -3 4 0
5087 444 1 4.1499999999999998e-01 5.2212354637668570e+00 7.6114381395177046e+00 1.4285439381774301e+01 2 0 0
5174 444 1 4.1499999999999998e-01 6.4785803146242955e+00 9.5761612169638752e+00 1.0321435755242206e+01 3 0 0
5173 444 2 -8.2999999999999996e-01 6.4664801616516341e+00 8.6556297019889161e+00 1.0583556442212089e+01 3 0 0
5175 444 1 4.1499999999999998e-01 7.3569072399148787e+00 8.3467570164846823e+00 1.0416316508953745e+01 3 0 0
2394 444 1 4.1499999999999998e-01 5.3288073080597664e+00 3.0488605407261060e-01 1.0999339871509481e+01 2 1 0
5109 444 1 4.1499999999999998e-01 8.9023531998725698e+00 2.9931785775375568e+00 1.2622247304773488e+01 0 1 0
5108 444 1 4.1499999999999998e-01 7.4298542565765953e+00 2.8760232422126553e+00 1.2290709904372800e+01 0 1 0
5107 444 2 -8.2999999999999996e-01 8.2410061667100081e+00 2.3688979129381664e+00 1.2323705907185760e+01 0 1 0
4579 444 2 -8.2999999999999996e-01 5.7236754448862257e+00 4.6689825376403737e+00 1.0811930928525339e+01 -4 -2 0
4581 444 1 4.1499999999999998e-01 5.0690196045418743e+00 4.0078052337024088e+00 1.0587203948009991e+01 -4 -2 0
4580 444 1 4.1499999999999998e-01 5.3046954658826007e+00 5.5031915800145415e+00 1.0600311169164069e+01 -4 -2 0
5086 444 2 -8.2999999999999996e-01 5.6378481686017521e+00 8.2899302783150102e+00 1.3754106711993256e+01 2 0 0
489 444 1 4.1499999999999998e-01 3.1910478483827900e+00 9.2117278403346425e+00 9.8577270803929924e+00 3 -4 0
5088 444 1 4.1499999999999998e-01 5.7398960709192375e+00 7.8896434249493721e+00 1.2890631787062556e+01 2 0 0
4780 444 2 -8.2999999999999996e-01 1.0649597578272239e+01 3.1840498906652979e+00 1.0262379019564452e+01 1 -1 0
471 444 1 4.1499999999999998e-01 3.5629736145376456e+00 7.3017808989382651e+00 1.0148474176847989e+01 1 -1 0
470 444 1 4.1499999999999998e-01 5.0013001260064538e+00 7.7519214218999535e+00 1.0291606459973073e+01 1 -1 0
469 444 2 -8.2999999999999996e-01 4.4644507707252252e+00 7.0107305415798340e+00 1.0011139469584473e+01 1 -1 0
4781 444 1 4.1499999999999998e-01 9.9453508743356078e+00 3.8323073505924672e+00 1.0256835149058519e+01 1 -1 0
2392 444 2 -8.2999999999999996e-01 5.4162480454724440e+00 8.9272898178568594e-01 1.0248988780539156e+01 2 1 0
4651 444 2 -8.2999999999999996e-01 4.3762962332695903e+00 5.3139924435094494e+00 1.3189564173079894e+01 2 1 0
5304 444 1 4.1499999999999998e-01 8.4283847804219931e+00 1.0006813989793557e+01 1.5546889596138449e+01 3 1 0
4782 444 1 4.1499999999999998e-01 1.0240136918867949e+01 2.3820889360931927e+00 9.9376753617053151e+00 1 -1 0
5529 444 1 4.1499999999999998e-01 9.3204604342250565e+00 8.7263084478994379e+00 1.0993660764426984e+01 2 2 0
5527 444 2 -8.2999999999999996e-01 8.9463548564485418e+00 8.1552124274588351e+00 1.0322745995236348e+01 2 2 0
5528 444 1 4.1499999999999998e-01 9.6520436262830849e+00 7.5461512130418607e+00 1.0105304484747387e+01 2 2 0
2301 444 1 4.1499999999999998e-01 1.7766367830068550e+00 7.3130368257900704e+00 1.1557881164075411e+01 2 -3 0
2470 444 2 -8.2999999999999996e-01 8.3653315623431475e+00 1.2110925447773861e+00 1.0152033966493862e+01 -2 3 0
2563 444 2 -8.2999999999999996e-01 7.8486651206709208e+00 9.7789416270264677e+00 1.3982875838046247e+01 -1 1 0
4652 444 1 4.1499999999999998e-01 5.1841048178848208e+00 5.2028800277885576e+00 1.2688234206100066e+01 2 1 0
1778 444 1 4.1499999999999998e-01 5.3634002933857001e+00 1.0993248210505490e+01 1.0143487443837870e+01 2 3 0
2564 444 1 4.1499999999999998e-01 7.0279250640430844e+00 9.3006304513209113e+00 1.4100502591815932e+01 -1 1 0
1777 444 2 -8.2999999999999996e-01 6.1469305427798115e+00 1.1536080611002067e+01 1.0230924427714328e+01 2 3 0
2565 444 1 4.1499999999999998e-01 7.9028217977501969e+00 9.9343890633637795e+00 1.3039936265166130e+01 -1 1 0
3162 444 1 4.1499999999999998e-01 2.5344981651919407e+00 6.1198008334037022e+00 1.3244064391487614e+01 2 2 0
2299 444 2 -8.2999999999999996e-01 1.8858025929659408e+00 7.6182738953606997e+00 1.0657244975436646e+01 2 -3 0
2922 444 1 4.1499999999999998e-01 4.7557054288598062e+00 9.0681348716415364e+00 1.5160738408441134e+01 2 -1 0
3160 444 2 -8.2999999999999996e-01 1.6074442578754264e+00 6.3026078240540162e+00 1.3091144261121503e+01 2 2 0
4653 444 1 4.1499999999999998e-01 4.4994533401721908e+00 4.7692623740503963e+00 1.3966953652528961e+01 2 1 0
5758 444 2 -8.2999999999999996e-01 1.0835766278946021e+01 1.1301864622262023e+00 1.2870162130135185e+01 0 2 0
3752 444 1 4.1499999999999998e-01 2.0220320086558283e+00 5.6235592486063757e+00 1.0439473541153941e+01 1 -1 0
2393 444 1 4.1499999999999998e-01 4.7232234574928835e+00 1.5417131557031047e+00 1.0370513788436879e+01 2 1 0
3165 444 1 4.1499999999999998e-01 5.8084180747991914e+00 3.0514374268825688e+00 1.5356840437037262e+01 3 1 0
3163 444 2 -8.2999999999999996e-01 5.3750920502463808e+00 3.9002916357924060e+00 1.5267919236069131e+01 3 1 0
2920 444 2 -8.2999999999999996e-01 4.2660124800468591e+00 9.4740984670500836e+00 1.5876019057471106e+01 2 -1 0
2921 444 1 4.1499999999999998e-01 4.2042165166840189e+00 1.0397312748275754e+01 1.5630888870534376e+01 2 -1 0
1553 444 1 4.1499999999999998e-01 7.8633868829392330e+00 1.1441875770983252e+01 1.0826562889581083e+01 -2 -2 0
457 444 2 -8.2999999999999996e-01 2.5747984949725362e+00 3.5125954647292770e+00 1.5146801081572363e+01 1 0 0
459 444 1 4.1499999999999998e-01 2.0571380786774003e+00 4.3096574361814302e+00 1.5260607126816293e+01 1 0 0
487 444 2 -8.2999999999999996e-01 3.7263902916843370e+00 9.9082704468513363e+00 1.0237817801612474e+01 3 -4 0
458 444 1 4.1499999999999998e-01 3.4715495720548510e+00 3.7775881955636788e+00 1.5351369541572044e+01 1 0 0
488 444 1 4.1499999999999998e-01 3.4969092226694585e+00 9.9073431542835593e+00 1.1167102279008608e+01 3 -4 0
2496 444 1 4.1499999999999998e-01 1.0358590917365843e+01 1.0970208633641933e+01 1.0606984218509782e+01 -1 0 0
3751 444 2 -8.2999999999999996e-01 1.6611408036650017e+00 4.7373838918174007e+00 1.0413338877309586e+01 1 -1 0
2994 444 1 4.1499999999999998e-01 1.6246635462161588e-01 4.7554415516951032e+00 1.5935940983685692e+01 1 -4 0
4272 444 1 4.1499999999999998e-01 1.0723062917694749e+01 4.4092238061261710e+00 1.3631026569027995e+01 -3 -4 0
885 444 1 4.1499999999999998e-01 9.9332637637166972e+00 9.1624468398539722e+00 1.3788672959212477e+01 -4 -1 0
2992 444 2 -8.2999999999999996e-01 9.1847355793105878e-01 5.2705888438483077e+00 1.5654323701714457e+01 1 -4 0
2471 444 1 4.1499999999999998e-01 8.4175199217232652e+00 1.6248374902713814e+00 1.1013615920367197e+01 -2 3 0
403 444 2 -8.2999999999999996e-01 3.3576846839785790e+00 2.7663230889788730e+00 1.0275767764622630e+01 1 0 0
3164 444 1 4.1499999999999998e-01 5.9898305668032341e+00 4.5250282908330357e+00 1.5652669230324562e+01 3 1 0
4270 444 2 -8.2999999999999996e-01 1.0055858536042361e+01 3.7308072831479793e+00 1.3735051824171832e+01 -3 -4 0
5546 444 1 4.1499999999999998e-01 7.8160508485036653e-02 1.0544950763343014e+01 1.0144481306131352e+01 -3 -4 0
4756 444 2 -8.2999999999999996e-01 5.2043342384834358e-02 1.1409082898666634e+01 1.3441171425392744e+01 -2 -2 0
405 444 1 4.1499999999999998e-01 2.6942137650475693e+00 3.4284934480908813e+00 1.0469596329720227e+01 1 0 0
2300 444 1 4.1499999999999998e-01 1.2123315541752360e+00 8.2896571918471480e+00 1.0548095078795642e+01 2 -3 0
3753 444 1 4.1499999999999998e-01 1.4188977466574115e+00 4.5500691811886087e+00 1.1320236610999919e+01 1 -1 0
5213 444 1 4.1499999999999998e-01 3.7261215756440675e+00 1.3192090260229157e+00 1.4510460054744037e+01 -1 0 0
2487 444 1 4.1499999999999998e-01 1.4505698274020635e+00 1.9392959821152911e+00 1.5434588285578297e+01 3 5 0
3161 444 1 4.1499999999999998e-01 1.1613988708922725e+00 5.9357692496590007e+00 1.3854495329311980e+01 2 2 0
883 444 2 -8.2999999999999996e-01 1.0758747523608049e+01 9.0938116824157831e+00 1.3308987546903335e+01 -4 -1 0
5545 444 2 -8.2999999999999996e-01 6.6352588450443739e-01 1.0210175232631597e+01 1.0823822830554787e+01 -3 -4 0
2472 444 1 4.1499999999999998e-01 7.4277016238531166e+00 1.1617823281266739e+00 9.9658874581843691e+00 -2 3 0
4271 444 1 4.1499999999999998e-01 1.0540186341239863e+01 2.9071470231061500e+00 1.3678109686005790e+01 -3 -4 0
5759 444 1 4.1499999999999998e-01 9.9604155970392831e+00 1.2208232071199703e+00 1.2493627591709826e+01 0 2 0
2494 444 2 -8.2999999999999996e-01 1.1184221410484181e+01 1.0502618529440253e+01 1.0733181413192156e+01 -1 0 0
404 444 1 4.1499999999999998e-01 2.9018756319729113e+00 2.1208297752267318e+00 9.7355746545622868e+00 1 0 0
1552 444 2 -8.2999999999999996e-01 8.7904871456553675e+00 1.1472941803927339e+01 1.1062681261870667e+01 -2 -2 0
5547 444 1 4.1499999999999998e-01 3.4700076305223382e-01 1.0612163436864330e+01 1.1632803591609790e+01 -3 -4 0
5294 444 1 4.1499999999999998e-01 8.5541581263404975e-01 6.1426817714564874e-01 9.9689648066614627e+00 1 -1 0
2486 444 1 4.1499999999999998e-01 6.5371424514289322e-01 8.7991478116677191e-01 1.4703405671571367e+01 3 5 0
1260 444 1 4.1499999999999998e-01 7.3076292851042384e+00 1.2710462068414714e+00 1.5002218055282798e+01 -1 0 0
2485 444 2 -8.2999999999999996e-01 1.1600991984740874e+00 1.0297095040744417e+00 1.5501759235095971e+01 3 5 0
1258 444 2 -8.2999999999999996e-01 6.6182824531338262e+00 1.6346251184729432e+00 1.5557954709375212e+01 -1 0 0
5019 444 1 4.1499999999999998e-01 1.3651132271863655e-02 6.8154000249600495e+00 1.2210128522144528e+01 1 -1 0
4906 444 2 -8.2999999999999996e-01 9.0219300274486969e+00 5.0141320232535896e-02 1.4895656419883215e+01 0 -1 0
4907 444 1 4.1499999999999998e-01 9.7749251192040738e+00 4.5473491748251588e-01 1.4464919510965858e+01 0 -1 0
1448 444 1 4.1499999999999998e-01 4.3649304782974852e-02 3.4057390156384284e+00 9.5214847870946393e+00 -3 0 0
5293 444 2 -8.2999999999999996e-01 4.2637583744943107e-02 5.8491546362071944e-01 1.0473704910715082e+01 1 -1 0
5920 444 2 -8.2999999999999996e-01 1.0965805072048349e+01 6.4001877801849014e+00 1.0286102226997203e+01 0 1 0
5921 444 1 4.1499999999999998e-01 1.0483977703386280e+01 5.6225675843656946e+00 1.0004355085640393e+01 0 1 0
5214 444 1 4.1499999999999998e-01 5.2384781239231106e+00 1.3645037801727442e+00 1.4561661642787762e+01 -1 0 0
5212 444 2 -8.2999999999999996e-01 4.5079999554405958e+00 1.0692544772152652e+00 1.4018097498537331e+01 -1 0 0
2495 444 1 4.1499999999999998e-01 1.1071650981344989e+01 1.0036097532649077e+01 1.1561383037443916e+01 -1 0 0
5922 444 1 4.1499999999999998e-01 1.1297942459845386e+01 6.1749378458078281e+00 1.1155113181143541e+01 0 1 0
2997 444 1 4.1499999999999998e-01 1.1395606925355263e+01 7.3025505540933180e+00 1.3043649650497754e+01 4 -3 0
5302 444 2 -8.2999999999999996e-01 8.5629550965481016e+00 9.9392598291163559e+00 1.6492172187972901e+01 3 1 0
752 444 1 4.1499999999999998e-01 2.9454809261515651e+00 8.6694147661806671e+00 1.6709347911071756e+01 3 1 0
2993 444 1 4.1499999999999998e-01 1.0070431403449398e+00 5.9512455190883378e+00 1.6321477198950756e+01 1 -4 0
2965 444 2 -8.2999999999999996e-01 6.9481085912229830e+00 5.6661752102707901e+00 1.6522397401188311e+01 3 1 0
2967 444 1 4.1499999999999998e-01 6.8178523645263063e+00 6.5342114892426597e+00 1.6904207205177865e+01 3 1 0
751 444 2 -8.2999999999999996e-01 2.5023828505857448e+00 8.3075859638348994e+00 1.7476795551372668e+01 3 1 0
926 444 1 4.1499999999999998e-01 8.7510505706739405e-01 8.1940679291893748e+00 1.8170257134192699e+01 3 2 0
2966 444 1 4.1499999999999998e-01 7.8354840319684564e+00 5.4198804629306974e+00 1.6783427870468849e+01 3 1 0
1581 444 1 4.1499999999999998e-01 3.6636801438631013e+00 5.1771131822472958e+00 1.7891232505203210e+01 -3 -3 0
1579 444 2 -8.2999999999999996e-01 3.8118023367437681e+00 6.1213013439376294e+00 1.7838313584970056e+01 -3 -3 0
5564 444 1 4.1499999999999998e-01 5.2274010515907063e+00 1.1460939041273964e+01 1.7387679887924410e+01 2 2 0
443 444 1 4.1499999999999998e-01 5.1518684290902552e+00 1.8153266401433439e+00 1.9190303979711310e+01 -4 3 0
5565 444 1 4.1499999999999998e-01 5.5865328235290272e+00 1.0407848450800602e+01 1.8414285841772880e+01 2 2 0
3454 444 2 -8.2999999999999996e-01 8.3289792268484708e-01 1.1642791193582005e+01 2.1922129613507579e+01 3 -1 0
1035 444 1 4.1499999999999998e-01 8.5540584518542850e+00 8.9889371513276906e-01 1.8489039263519857e+01 2 4 0
5856 444 1 4.1499999999999998e-01 1.1197846906685884e+01 4.4797740271671485e+00 1.9658679257182222e+01 -1 -1 0
2049 444 1 4.1499999999999998e-01 8.4714905783937733e-01 1.5657414957556710e+00 1.8633610925459923e+01 -1 -4 0
1259 444 1 4.1499999999999998e-01 6.6575100277172856e+00 1.1142661963656966e+00 1.6360400748384766e+01 -1 0 0
5488 444 2 -8.2999999999999996e-01 1.0855193324643075e+01 9.4489492440350382e+00 1.7261377800836332e+01 1 2 0
2035 444 2 -8.2999999999999996e-01 4.1369052315634258e+00 9.4309904108854514e+00 1.9357946639930244e+01 3 -3 0
2037 444 1 4.1499999999999998e-01 3.6217274200442140e+00 8.9172397245356070e+00 1.8735946088200926e+01 3 -3 0
2048 444 1 4.1499999999999998e-01 5.8256189092895816e-01 1.1190238934173882e+00 1.7211523183091671e+01 -1 -4 0
753 444 1 4.1499999999999998e-01 2.9690253896924435e+00 7.4924406581573626e+00 1.7661226486218997e+01 3 1 0
3989 444 1 4.1499999999999998e-01 6.3268511117968700e+00 8.4404062563299913e+00 2.0905005477583170e+01 -1 5 0
5273 444 1 4.1499999999999998e-01 1.2776112216560376e+00 2.6940312547506400e+00 2.0560735168140997e+01 -3 -1 0
5274 444 1 4.1499999999999998e-01 2.0511537235228636e+00 1.3956807831376106e+00 2.0649127958310981e+01 -3 -1 0
4856 444 1 4.1499999999999998e-01 2.9809896029683500e+00 3.0919211253647747e+00 1.7349501692161994e+01 -1 0 0
5084 444 1 4.1499999999999998e-01 4.5243064373914557e+00 1.1163225769563246e+01 2.3726611324875346e+01 1 -1 0
5272 444 2 -8.2999999999999996e-01 1.8038095800674001e+00 2.0893020814517600e+00 2.0037619665677720e+01 -3 -1 0
442 444 2 -8.2999999999999996e-01 5.8721053035329200e+00 2.2009175591035888e+00 1.8691494929655011e+01 -4 3 0
3057 444 1 4.1499999999999998e-01 3.6844935693931041e-01 6.4588358236417136e+00 1.9421199335965888e+01 0 6 0
4855 444 2 -8.2999999999999996e-01 3.2841208534913235e+00 3.5544107150554387e+00 1.8130812694703121e+01 -1 0 0
4857 444 1 4.1499999999999998e-01 2.7951795431110962e+00 3.1555808555836493e+00 1.8850607170525855e+01 -1 0 0
4565 444 1 4.1499999999999998e-01 3.4805161431658886e+00 2.6526768292895513e+00 2.3088126249105350e+01 2 -3 0
3449 444 1 4.1499999999999998e-01 9.2814504472164465e+00 6.5559474463963339e+00 1.7798460239323667e+01 -2 0 0
1580 444 1 4.1499999999999998e-01 4.7618669460122689e+00 6.2191148299794445e+00 1.7901887253212081e+01 -3 -3 0
217 444 2 -8.2999999999999996e-01 6.8761995896014447e+00 4.4149740466794665e+00 2.1148501139339984e+01 -1 3 0
4889 444 1 4.1499999999999998e-01 6.3251825902405887e+00 8.3537636134148983e+00 2.3523868796118872e+01 -1 1 0
1673 444 1 4.1499999999999998e-01 4.7254535338406995e+00 7.2663584602377167e+00 2.1750637030381196e+01 -3 -3 0
1672 444 2 -8.2999999999999996e-01 5.0551505197853643e+00 6.5931031653512928e+00 2.1155439665282731e+01 -3 -3 0
1674 444 1 4.1499999999999998e-01 4.4509974846054030e+00 5.8588402419807508e+00 2.1265393204186061e+01 -3 -3 0
218 444 1 4.1499999999999998e-01 7.5111680593116468e+00 4.5786195255374444e+00 2.1845830137845262e+01 -1 3 0
4888 444 2 -8.2999999999999996e-01 6.3286040410889006e+00 9.2969168192767775e+00 2.3360519476240224e+01 -1 1 0
3450 444 1 4.1499999999999998e-01 9.3741160661315686e+00 5.1519389189300000e+00 1.8357091088872352e+01 -2 0 0
3448 444 2 -8.2999999999999996e-01 9.5893174627586752e+00 5.6751169705534306e+00 1.7584947960953759e+01 -2 0 0
331 444 2 -8.2999999999999996e-01 9.0198437447135760e+00 4.2018783568184954e+00 1.9698936939977926e+01 6 0 0
332 444 1 4.1499999999999998e-01 8.9670654920204012e+00 3.3018281253872304e+00 1.9377446713407672e+01 6 0 0
333 444 1 4.1499999999999998e-01 8.1670800250111881e+00 4.3628487363363622e+00 2.0102811329370248e+01 6 0 0
3055 444 2 -8.2999999999999996e-01 4.8747548610867891e-01 5.5699691470644446e+00 1.9755834668829632e+01 0 6 0
444 444 1 4.1499999999999998e-01 5.4522685068047823e+00 2.8487186869219676e+00 1.8125524226369055e+01 -4 3 0
219 444 1 4.1499999999999998e-01 6.0899427119118927e+00 4.8859994907089837e+00 2.1424485422685596e+01 -1 3 0
1458 444 1 4.1499999999999998e-01 7.4905907686303035e+00 1.8129633676000534e+00 2.1713408790699688e+01 -2 1 0
3988 444 2 -8.2999999999999996e-01 6.6508526244647541e+00 8.9675426173818575e+00 2.0174675130852471e+01 -1 5 0
1456 444 2 -8.2999999999999996e-01 6.9765683862944279e+00 1.2871956562985449e+00 2.2326255826056499e+01 -2 1 0
4564 444 2 -8.2999999999999996e-01 4.2383412308994330e+00 3.1694666984718651e+00 2.2814517535629403e+01 2 -3 0
4404 444 1 4.1499999999999998e-01 3.1113799336870041e+00 9.5628715198345269e+00 2.2524492241654624e+01 -1 -2 0
1457 444 1 4.1499999999999998e-01 6.0929308210977524e+00 1.6511976141060676e+00 2.2272223362037423e+01 -2 1 0
4566 444 1 4.1499999999999998e-01 3.8893172079707568e+00 3.7839823675761410e+00 2.2168928301762165e+01 2 -3 0
242 444 1 4.1499999999999998e-01 8.0997496539364633e+00 4.7129201155177036e-01 2.3450323010266882e+01 -4 2 0
4348 444 2 -8.2999999999999996e-01 8.3033891396236186e+00 7.8310389426739571e+00 1.8477967577611185e+01 3 1 0
4350 444 1 4.1499999999999998e-01 7.6782343361155512e+00 8.0792647456840427e+00 1.9158994229195851e+01 3 1 0
4349 444 1 4.1499999999999998e-01 8.3020157550902045e+00 8.5703179349532750e+00 1.7869940810179237e+01 3 1 0
5489 444 1 4.1499999999999998e-01 1.0008609462114038e+01 9.4759326602142906e+00 1.6815508358810995e+01 1 2 0
4403 444 1 4.1499999999999998e-01 2.1003877196246461e+00 8.5149726793247904e+00 2.2110127605677878e+01 -1 -2 0
4402 444 2 -8.2999999999999996e-01 3.0162137770793027e+00 8.7695258233513620e+00 2.1997445791404619e+01 -1 -2 0
2938 444 2 -8.2999999999999996e-01 4.4232159228582418e-01 1.0013183343656012e+01 2.4335869977130180e+01 -3 2 0
241 444 2 -8.2999999999999996e-01 8.7702812714415153e+00 1.7582604756447220e-01 2.4066212989798835e+01 -4 2 0
1095 444 1 4.1499999999999998e-01 9.8498587749989124e+00 2.1635243064501233e+00 1.7584466880320704e+01 1 0 0
2036 444 1 4.1499999999999998e-01 3.8947433255303308e+00 9.0822905453964324e+00 2.0215850153494070e+01 3 -3 0
2476 444 2 -8.2999999999999996e-01 9.0908385883201603e+00 1.0212379032722684e+01 2.1564851450759694e+01 -3 2 0
3990 444 1 4.1499999999999998e-01 6.0656055763928549e+00 9.7244726635617234e+00 2.0146836986954995e+01 -1 5 0
4890 444 1 4.1499999999999998e-01 5.4244804300947465e+00 9.5705444638316255e+00 2.3515184829490369e+01 -1 1 0
3419 444 1 4.1499999999999998e-01 8.9582168736461849e+00 4.4311570375300544e+00 2.3703367831544305e+01 2 5 0
2939 444 1 4.1499999999999998e-01 6.8757538045274935e-01 1.0591292411796077e+01 2.3613462194744095e+01 -3 2 0
3418 444 2 -8.2999999999999996e-01 8.0379412527720966e+00 4.1733467962894872e+00 2.3649901955086275e+01 2 5 0
5891 444 1 4.1499999999999998e-01 2.0353545434180700e+00 5.0962241836249946e+00 2.2302962330574854e+01 -1 2 0
5890 444 2 -8.2999999999999996e-01 2.6028593774632056e+00 4.9720839205286831e+00 2.1542199947003702e+01 -1 2 0
1034 444 1 4.1499999999999998e-01 7.5353285113799400e+00 1.9384290359625307e+00 1.8905513587364691e+01 2 4 0
1093 444 2 -8.2999999999999996e-01 1.0528324185570943e+01 2.6252930122532163e+00 1.7091834700359154e+01 1 0 0
5533 444 2 -8.2999999999999996e-01 2.7342239789910874e+00 5.1963762555984849e-01 2.2516991607531807e+01 1 0 0
1033 444 2 -8.2999999999999996e-01 8.4678228396381421e+00 1.7288447215371581e+00 1.8958055972073325e+01 2 4 0
1942 444 2 -8.2999999999999996e-01 1.0691809587333552e+01 6.1509146243489958e+00 2.4235600865422839e+01 -1 2 0
5572 444 2 -8.2999999999999996e-01 1.1194634951773248e+01 1.1651221823903573e+01 2.0560721228458608e+01 -2 1 0
5490 444 1 4.1499999999999998e-01 1.0768497583322912e+01 8.7396678074924008e+00 1.7898273046185842e+01 1 2 0
5083 444 2 -8.2999999999999996e-01 3.8376718867562216e+00 1.0551456809745257e+01 2.3461086132770220e+01 1 -1 0
2586 444 1 4.1499999999999998e-01 8.4083216554447826e-01 6.3444150052053709e+00 2.4224305664693997e+01 0 -1 0
5085 444 1 4.1499999999999998e-01 3.0643183766771522e+00 1.0831426331643218e+01 2.3950752688712061e+01 1 -1 0
2584 444 2 -8.2999999999999996e-01 1.3413959523534702e+00 5.7168371982759600e+00 2.3702947938570869e+01 0 -1 0
2585 444 1 4.1499999999999998e-01 2.1431190455978220e+00 5.5726668067116458e+00 2.4205627649385704e+01 0 -1 0
2730 444 1 4.1499999999999998e-01 3.5694775797162066e+00 1.1461032538090938e+01 2.0731558794622440e+01 1 1 0
2047 444 2 -8.2999999999999996e-01 1.4821804922766768e-01 1.4773156781627461e+00 1.7985606768471918e+01 -1 -4 0
5830 444 2 -8.2999999999999996e-01 1.1398070883612696e+01 2.1086968859995174e+00 2.4173405819449709e+01 3 2 0
5892 444 1 4.1499999999999998e-01 2.0173939494899051e+00 5.0568073488883805e+00 2.0789681466187112e+01 -1 2 0
1883 444 1 4.1499999999999998e-01 5.6992186353126622e+00 3.6049367514368660e+00 2.4147797168115506e+01 2 2 0
5563 444 2 -8.2999999999999996e-01 5.9560183686491301e+00 1.1138143165257777e+01 1.7917917098038327e+01 2 2 0
5573 444 1 4.1499999999999998e-01 1.1279411050522647e+01 1.1194666779234803e+01 1.9723701102317040e+01 -2 1 0
3909 444 1 4.1499999999999998e-01 3.1048416453522121e-01 1.0257265689875050e+01 2.0988786182612351e+01 2 -4 0
3825 444 1 4.1499999999999998e-01 3.1842202810745616e-02 2.7663829661093766e+00 2.3090307827569493e+01 0 -4 0
2477 444 1 4.1499999999999998e-01 8.5690218729846457e+00 9.9406701212152093e+00 2.0809792637846527e+01 -3 2 0
5303 444 1 4.1499999999999998e-01 7.9199954617138895e+00 1.0539568032216916e+01 1.6869617357289272e+01 3 1 0
1094 444 1 4.1499999999999998e-01 1.0225095949945818e+01 3.5325769608110495e+00 1.7058361237726796e+01 1 0 0
5534 444 1 4.1499999999999998e-01 3.1647877370473090e+00 3.1426422138196672e-02 2.1815210270091445e+01 1 0 0