LAMMPS data file via write_data, version 11 Aug 2017, timestep = 5000000

7160 atoms
4 atom types
4000 bonds
1 bond types
2000 angles
1 angle types

0.0000000000000000e+00 4.5679949999999998e+01 xlo xhi
0.0000000000000000e+00 4.6885919999999999e+01 ylo yhi
0.0000000000000000e+00 6.5000000000000000e+01 zlo zhi

Masses

1 1.0079
2 15.9994
3 22.9898
4 107.868

Bond Coeffs # harmonic

1 450 0.9572

Angle Coeffs # harmonic

1 500 104.52

Atoms # full

6009 444 4 0.0000000000000000e+00 1.6907200000000000e+00 0.0000000000000000e+00 0.0000000000000000e+00 0 0 0
6010 444 4 0.0000000000000000e+00 4.2285000000000004e+00 1.4651900000000000e+00 0.0000000000000000e+00 0 0 0
6011 444 4 -2.7779999999999999e-02 1.6907700000000001e+00 0.0000000000000000e+00 7.1781499999999996e+00 0 0 0
6012 444 4 -2.7779999999999999e-02 4.2285500000000003e+00 1.4651900000000000e+00 7.1781499999999996e+00 0 0 0
6013 444 4 0.0000000000000000e+00 2.5366499999999998e+00 1.4651900000000000e+00 2.3926400000000001e+00 0 0 0
6014 444 4 0.0000000000000000e+00 5.0744199999999999e+00 0.0000000000000000e+00 2.3926400000000001e+00 0 0 0
6015 444 4 0.0000000000000000e+00 8.4509000000000001e-01 1.4651900000000000e+00 4.7824200000000001e+00 0 0 0
6016 444 4 0.0000000000000000e+00 3.3828600000000000e+00 0.0000000000000000e+00 4.7824499999999999e+00 0 0 0
6017 444 4 0.0000000000000000e+00 1.6907200000000000e+00 2.9303699999999999e+00 0.0000000000000000e+00 0 0 0
6018 444 4 0.0000000000000000e+00 4.2285000000000004e+00 4.3955599999999997e+00 0.0000000000000000e+00 0 0 0
6019 444 4 -2.7779999999999999e-02 1.6907700000000001e+00 2.9303699999999999e+00 7.1781899999999998e+00 0 0 0
6020 444 4 -2.7779999999999999e-02 4.2285500000000003e+00 4.3955599999999997e+00 7.1781600000000001e+00 0 0 0
6021 444 4 0.0000000000000000e+00 2.5366499999999998e+00 4.3955599999999997e+00 2.3926400000000001e+00 0 0 0
6022 444 4 0.0000000000000000e+00 5.0744199999999999e+00 2.9303699999999999e+00 2.3926400000000001e+00 0 0 0
6023 444 4 0.0000000000000000e+00 8.4509000000000001e-01 4.3955599999999997e+00 4.7824499999999999e+00 0 0 0
6024 444 4 0.0000000000000000e+00 3.3828700000000000e+00 2.9303699999999999e+00 4.7824400000000002e+00 0 0 0
6025 444 4 0.0000000000000000e+00 1.6907200000000000e+00 5.8607399999999998e+00 0.0000000000000000e+00 0 0 0
6026 444 4 0.0000000000000000e+00 4.2285000000000004e+00 7.3259299999999996e+00 0.0000000000000000e+00 0 0 0
6027 444 4 -2.7779999999999999e-02 1.6907700000000001e+00 5.8607399999999998e+00 7.1781499999999996e+00 0 0 0
6028 444 4 -2.7779999999999999e-02 4.2285500000000003e+00 7.3259299999999996e+00 7.1781499999999996e+00 0 0 0
6029 444 4 0.0000000000000000e+00 2.5366499999999998e+00 7.3259299999999996e+00 2.3926400000000001e+00 0 0 0
6030 444 4 0.0000000000000000e+00 5.0744199999999999e+00 5.8607399999999998e+00 2.3926400000000001e+00 0 0 0
6031 444 4 0.0000000000000000e+00 8.4509000000000001e-01 7.3259299999999996e+00 4.7824200000000001e+00 0 0 0
6032 444 4 0.0000000000000000e+00 3.3828600000000000e+00 5.8607399999999998e+00 4.7824499999999999e+00 0 0 0
6137 444 4 0.0000000000000000e+00 6.7662699999999996e+00 0.0000000000000000e+00 0.0000000000000000e+00 0 0 0
6139 444 4 -2.7779999999999999e-02 6.7663200000000003e+00 0.0000000000000000e+00 7.1781499999999996e+00 0 0 0
6141 444 4 0.0000000000000000e+00 7.6121999999999996e+00 1.4651900000000000e+00 2.3926400000000001e+00 0 0 0
6143 444 4 0.0000000000000000e+00 5.9206399999999997e+00 1.4651900000000000e+00 4.7824200000000001e+00 0 0 0
6145 444 4 0.0000000000000000e+00 6.7662699999999996e+00 2.9303699999999999e+00 0.0000000000000000e+00 0 0 0
6147 444 4 -2.7779999999999999e-02 6.7663200000000003e+00 2.9303699999999999e+00 7.1781899999999998e+00 0 0 0
6149 444 4 0.0000000000000000e+00 7.6121999999999996e+00 4.3955599999999997e+00 2.3926400000000001e+00 0 0 0
6151 444 4 0.0000000000000000e+00 5.9206399999999997e+00 4.3955599999999997e+00 4.7824499999999999e+00 0 0 0
6153 444 4 0.0000000000000000e+00 6.7662699999999996e+00 5.8607399999999998e+00 0.0000000000000000e+00 0 0 0
6155 444 4 -2.7779999999999999e-02 6.7663200000000003e+00 5.8607399999999998e+00 7.1781499999999996e+00 0 0 0
6157 444 4 0.0000000000000000e+00 7.6121999999999996e+00 7.3259299999999996e+00 2.3926400000000001e+00 0 0 0
6159 444 4 0.0000000000000000e+00 5.9206399999999997e+00 7.3259299999999996e+00 4.7824200000000001e+00 0 0 0
6138 444 4 0.0000000000000000e+00 9.3040500000000002e+00 1.4651900000000000e+00 0.0000000000000000e+00 0 0 0
6140 444 4 -2.7779999999999999e-02 9.3041000000000000e+00 1.4651900000000000e+00 7.1781499999999996e+00 0 0 0
6142 444 4 0.0000000000000000e+00 1.0149970000000000e+01 0.0000000000000000e+00 2.3926400000000001e+00 0 0 0
6144 444 4 0.0000000000000000e+00 8.4584100000000007e+00 0.0000000000000000e+00 4.7824499999999999e+00 0 0 0
6146 444 4 0.0000000000000000e+00 9.3040500000000002e+00 4.3955599999999997e+00 0.0000000000000000e+00 0 0 0
6148 444 4 -2.7779999999999999e-02 9.3041000000000000e+00 4.3955599999999997e+00 7.1781600000000001e+00 0 0 0
6150 444 4 0.0000000000000000e+00 1.0149970000000000e+01 2.9303699999999999e+00 2.3926400000000001e+00 0 0 0
6152 444 4 0.0000000000000000e+00 8.4584200000000003e+00 2.9303699999999999e+00 4.7824400000000002e+00 0 0 0
6154 444 4 0.0000000000000000e+00 9.3040500000000002e+00 7.3259299999999996e+00 0.0000000000000000e+00 0 0 0
6156 444 4 -2.7779999999999999e-02 9.3041000000000000e+00 7.3259299999999996e+00 7.1781499999999996e+00 0 0 0
6158 444 4 0.0000000000000000e+00 1.0149970000000000e+01 5.8607399999999998e+00 2.3926400000000001e+00 0 0 0
6160 444 4 0.0000000000000000e+00 8.4584100000000007e+00 5.8607399999999998e+00 4.7824499999999999e+00 0 0 0
6271 444 4 0.0000000000000000e+00 1.0996190000000000e+01 1.4651900000000000e+00 4.7824200000000001e+00 0 0 0
6279 444 4 0.0000000000000000e+00 1.0996190000000000e+01 4.3955599999999997e+00 4.7824499999999999e+00 0 0 0
6287 444 4 0.0000000000000000e+00 1.0996190000000000e+01 7.3259299999999996e+00 4.7824200000000001e+00 0 0 0
2519 444 1 4.1499999999999998e-01 5.6295068332380183e+00 3.1293106792757697e+00 1.1884468025528093e+01 2 -3 0
172 444 2 -8.2999999999999996e-01 1.5107264433368359e+00 3.9549819436237414e+00 1.1608378899337961e+01 5 0 0
173 444 1 4.1499999999999998e-01 1.7121338381086915e+00 3.6988178581935487e+00 1.2508405175308711e+01 5 0 0
2404 444 2 -8.2999999999999996e-01 1.9208211766457368e+00 2.8278781779108497e+00 1.3912402695031021e+01 2 -2 0
174 444 1 4.1499999999999998e-01 1.6686806218970622e+00 3.1641725658695736e+00 1.1092721002966909e+01 5 0 0
2405 444 1 4.1499999999999998e-01 1.2589028051214015e+00 3.1312449079323996e+00 1.4533743822395719e+01 2 -2 0
2518 444 2 -8.2999999999999996e-01 5.8599460344494103e+00 2.9469181214621978e+00 1.0973499961017653e+01 2 -3 0
844 444 2 -8.2999999999999996e-01 6.2906005687971500e-01 1.6128060298674887e+00 1.0821206235089008e+01 2 5 0
2520 444 1 4.1499999999999998e-01 5.0351936494662075e+00 2.6831778167641680e+00 1.0565508968274001e+01 2 -3 0
2406 444 1 4.1499999999999998e-01 1.6953793775157959e+00 1.9119370434457643e+00 1.3749733361243202e+01 2 -2 0
3094 444 2 -8.2999999999999996e-01 9.5046748847240305e+00 1.9490460421348355e+00 1.3193793622779266e+01 5 1 0
5517 444 1 4.1499999999999998e-01 7.9480794785191140e+00 1.5340914371774041e+00 1.2719164551864161e+01 -4 -3 0
3096 444 1 4.1499999999999998e-01 1.0281002195604749e+01 1.8606148711426576e+00 1.3746720231028879e+01 5 1 0
846 444 1 4.1499999999999998e-01 8.3713185592953054e-01 6.9427504519815419e-01 1.0650210437303523e+01 2 5 0
2273 444 1 4.1499999999999998e-01 6.4490682110355069e+00 2.9753959231257920e+00 1.4975303605075400e+01 2 0 0
1993 444 2 -8.2999999999999996e-01 5.0318219298676654e+00 3.0950133097640133e+00 1.3577997149172777e+01 3 3 0
1995 444 1 4.1499999999999998e-01 4.4128526932499783e+00 2.3651401165488672e+00 1.3597848017838331e+01 3 3 0
1994 444 1 4.1499999999999998e-01 4.4887757870744878e+00 3.8736201807169923e+00 1.3700896496594760e+01 3 3 0
3095 444 1 4.1499999999999998e-01 9.8455694913958549e+00 1.9468210556508443e+00 1.2299356369796691e+01 5 1 0
371 444 1 4.1499999999999998e-01 5.8532828284831098e+00 4.7339921023989904e+00 9.9776647346619303e+00 3 2 0
3475 444 2 -8.2999999999999996e-01 3.2690069606406404e+00 6.0023431815906250e+00 1.1032973577816296e+01 6 -1 0
3477 444 1 4.1499999999999998e-01 2.6966014757123418e+00 5.2667062598750354e+00 1.0815205642295100e+01 6 -1 0
5955 444 1 4.1499999999999998e-01 7.5785669815933288e+00 2.7923442622510293e+00 1.0447641769115332e+01 5 -2 0
5859 444 1 4.1499999999999998e-01 7.9603277546380582e+00 4.6309546345372246e+00 1.3278923761244309e+01 -2 5 0
4130 444 1 4.1499999999999998e-01 9.6221339934179344e+00 5.1499646915605846e+00 1.1366149480560789e+01 2 -1 0
5858 444 1 4.1499999999999998e-01 9.0602475497871549e+00 3.6197191310716912e+00 1.3035047211599078e+01 -2 5 0
372 444 1 4.1499999999999998e-01 4.8464875139425345e+00 5.7924841490093888e+00 1.0374971914950548e+01 3 2 0
370 444 2 -8.2999999999999996e-01 5.7741797676493976e+00 5.6672564797032789e+00 1.0175129285174314e+01 3 2 0
5857 444 2 -8.2999999999999996e-01 8.8978499871390735e+00 4.5608729238261754e+00 1.3098995854879631e+01 -2 5 0
2029 444 2 -8.2999999999999996e-01 3.4822225381222656e+00 1.7908386088443098e+00 1.0504430623289059e+01 -2 -3 0
1821 444 1 4.1499999999999998e-01 4.3438450701909526e+00 3.5964498233069384e+00 1.5461638198985536e+01 6 -1 0
5954 444 1 4.1499999999999998e-01 8.4750404926707557e+00 3.9389862094773629e+00 1.0031176694762603e+01 5 -2 0
5953 444 2 -8.2999999999999996e-01 8.4918034642880134e+00 3.0098903379906070e+00 1.0260811583083672e+01 5 -2 0
210 444 1 4.1499999999999998e-01 6.5296796452564969e+00 5.9670549403203559e+00 1.2030791956733385e+01 -4 -1 0
5730 444 1 4.1499999999999998e-01 9.9116185284396590e+00 4.7264184679162975e+00 1.4413268819356007e+01 6 3 0
2031 444 1 4.1499999999999998e-01 2.5350111643941466e+00 1.7997154146550507e+00 1.0366791847740044e+01 -2 -3 0
5729 444 1 4.1499999999999998e-01 1.1089414886477135e+01 4.7713375308252797e+00 1.5363360752350342e+01 6 3 0
570 444 1 4.1499999999999998e-01 3.5928928300941387e+00 5.6139531210660314e+00 1.2679876696234844e+01 -4 3 0
568 444 2 -8.2999999999999996e-01 3.8590424069835225e+00 5.3945430004824058e+00 1.3572768530709634e+01 -4 3 0
5516 444 1 4.1499999999999998e-01 6.8203917698807652e+00 1.6434934304847981e+00 1.1715049118107803e+01 -4 -3 0
3476 444 1 4.1499999999999998e-01 2.7017407134328120e+00 6.7715527763426682e+00 1.0980452746481117e+01 6 -1 0
5515 444 2 -8.2999999999999996e-01 7.2608744510644376e+00 1.0212033473008806e+00 1.2293808518367193e+01 -4 -3 0
2272 444 2 -8.2999999999999996e-01 7.3209234723252035e+00 2.9338615876268177e+00 1.5368210029282427e+01 2 0 0
209 444 1 4.1499999999999998e-01 5.5350176595920804e+00 5.7629867413207441e+00 1.3153690412136706e+01 -4 -1 0
2328 444 1 4.1499999999999998e-01 8.9237676062663276e+00 6.7609653198945168e+00 1.3477686759971657e+01 -4 1 0
208 444 2 -8.2999999999999996e-01 6.4718136217526308e+00 5.7388564346252018e+00 1.2958590221360692e+01 -4 -1 0
569 444 1 4.1499999999999998e-01 3.3950992189163545e+00 6.0253135659737405e+00 1.4123329686012299e+01 -4 3 0
1605 444 1 4.1499999999999998e-01 1.0725936774563950e+01 9.5856452327545805e-01 9.9833524969055993e+00 1 2 0
4907 444 1 4.1499999999999998e-01 8.9199181768172977e+00 7.1461755061966139e+00 1.0180436708611341e+01 0 -1 0
5728 444 2 -8.2999999999999996e-01 1.0152913576279451e+01 4.5766517870686343e+00 1.5327369145372275e+01 6 3 0
578 444 1 4.1499999999999998e-01 8.9850655628262963e+00 5.6598937906124469e+00 1.6070459054497519e+01 1 -3 0
2788 444 2 -8.2999999999999996e-01 1.5589000660405206e+00 1.5121055524041824e-01 1.3563233832040630e+01 -3 -2 0
579 444 1 4.1499999999999998e-01 7.9240690357305956e+00 6.7287249475402433e+00 1.5916243487257130e+01 1 -3 0
2274 444 1 4.1499999999999998e-01 7.8431106544597888e+00 2.4334053870064811e+00 1.4741236178060783e+01 2 0 0
207 444 1 4.1499999999999998e-01 1.8206683375571212e-01 4.8298321962130313e+00 1.5883292714086945e+01 1 3 0
2030 444 1 4.1499999999999998e-01 3.7010131612836155e+00 8.6475024522309063e-01 1.0607986611061655e+01 -2 -3 0
1241 444 1 4.1499999999999998e-01 5.7663346823901085e+00 7.4112386379352708e+00 9.8656432759048194e+00 3 -2 0
2326 444 2 -8.2999999999999996e-01 9.1032643250682383e+00 7.7011572772533450e+00 1.3470461128740528e+01 -4 1 0
77 444 1 4.1499999999999998e-01 5.8334373121013847e+00 2.3488506587011734e-01 1.2717862961735600e+01 -2 -1 0
4131 444 1 4.1499999999999998e-01 1.0533528715968639e+01 4.5468859059620899e+00 1.0318508647926834e+01 2 -1 0
5994 444 1 4.1499999999999998e-01 1.0303385229797088e+01 8.0613891971328144e-01 1.5860391257645082e+01 -1 7 0
4129 444 2 -8.2999999999999996e-01 1.0006936563764757e+01 5.3236562693329645e+00 1.0507085562734717e+01 2 -1 0
4908 444 1 4.1499999999999998e-01 7.6254605525341903e+00 7.7119088939257949e+00 1.0724698461443388e+01 0 -1 0
1603 444 2 -8.2999999999999996e-01 1.0635214692581016e+01 1.7109343845107712e+00 1.0568109678753725e+01 1 2 0
1370 444 1 4.1499999999999998e-01 1.1125528591405510e+01 7.0276462058001492e+00 1.0122872998987622e+01 2 -5 0
1604 444 1 4.1499999999999998e-01 9.7903573026813628e+00 2.0956850113657426e+00 1.0334839758018832e+01 1 2 0
3602 444 1 4.1499999999999998e-01 6.8786249234887298e-01 7.7300813178746122e+00 1.2208719913973232e+01 4 -1 0
1019 444 1 4.1499999999999998e-01 4.4128341846315173e+00 7.7762261948864113e+00 1.5750359523670738e+01 2 -3 0
1564 444 2 -8.2999999999999996e-01 3.1895711719945243e+00 7.6486884884085837e+00 1.4547709927808462e+01 -5 0 0
1819 444 2 -8.2999999999999996e-01 4.4181930579759934e+00 3.3955299877555074e+00 1.6394555910147840e+01 6 -1 0
5339 444 1 4.1499999999999998e-01 3.0939437346708604e-01 5.5388069514308489e+00 2.3268490499529420e+01 5 1 0
5911 444 2 -8.2999999999999996e-01 1.0987046111561893e+01 2.7705239439425049e+00 1.8170704783601479e+01 7 -3 0
2845 444 2 -8.2999999999999996e-01 2.9058760013991131e-01 3.7599076483638356e+00 1.8625832364598295e+01 2 6 0
1820 444 1 4.1499999999999998e-01 5.0474538950813201e+00 4.0349397597567611e+00 1.6728349067716753e+01 6 -1 0
5062 444 2 -8.2999999999999996e-01 9.6372664875518392e+00 5.0661455813685565e+00 1.8750742946747646e+01 0 -1 0
2969 444 1 4.1499999999999998e-01 6.7480222461997803e+00 5.4496944488344949e+00 1.7590320922431342e+01 -1 -2 0
5012 444 1 4.1499999999999998e-01 5.6978034342011652e+00 3.6013907388976918e-01 1.8945405350553475e+01 -1 -5 0
5992 444 2 -8.2999999999999996e-01 9.9243449340208514e+00 6.3479564763875129e-01 1.6722483061318943e+01 -1 7 0
3136 444 2 -8.2999999999999996e-01 4.2116731700413972e+00 8.9784245380853778e-01 2.1469873554492761e+01 4 1 0
5913 444 1 4.1499999999999998e-01 1.0452076839416222e+01 2.1443334706042458e+00 1.7682928610043035e+01 7 -3 0
5343 444 1 4.1499999999999998e-01 5.2828727919389273e-01 1.9020188715399067e+00 2.3410243369918895e+01 5 5 0
5064 444 1 4.1499999999999998e-01 1.0161676027651088e+01 4.2835518811463666e+00 1.8581112890071090e+01 0 -1 0
2968 444 2 -8.2999999999999996e-01 5.8387797532106349e+00 5.5073600079554126e+00 1.7296747858522952e+01 -1 -2 0
4218 444 1 4.1499999999999998e-01 7.4749739641679325e+00 3.0360642962240538e+00 1.7086851242684855e+01 -2 -1 0
2970 444 1 4.1499999999999998e-01 5.7341013476755931e+00 6.4167987541512295e+00 1.7017111401206751e+01 -1 -2 0
4216 444 2 -8.2999999999999996e-01 7.4229909421708120e+00 2.9286731818326830e+00 1.8036586353831776e+01 -2 -1 0
4217 444 1 4.1499999999999998e-01 8.3338718866583523e+00 2.9457452838903286e+00 1.8330246634681679e+01 -2 -1 0
4109 444 1 4.1499999999999998e-01 5.7603163889653031e+00 1.3662051225896987e+00 2.3140520919850470e+01 0 3 0
3137 444 1 4.1499999999999998e-01 4.9067201380142444e+00 1.5528774580625915e+00 2.1406064170230344e+01 4 1 0
4108 444 2 -8.2999999999999996e-01 5.6916847804727668e+00 6.5649456754477764e-01 2.3779139338655511e+01 0 3 0
2896 444 2 -8.2999999999999996e-01 1.7848739256473483e+00 5.5061490669325543e+00 2.2332537048508033e+01 3 -1 0
1014 444 1 4.1499999999999998e-01 7.8385947920764760e+00 6.3633723266420725e+00 1.9593294775420958e+01 1 6 0
4410 444 1 4.1499999999999998e-01 6.3017715355659805e+00 3.5383591911126460e+00 1.9036570488786985e+01 -2 -2 0
1012 444 2 -8.2999999999999996e-01 7.0530511660475144e+00 6.2064620763168410e+00 2.0117253364673054e+01 1 6 0
4454 444 1 4.1499999999999998e-01 3.4690293420391671e+00 3.1680864119513772e+00 1.7730847948150647e+01 0 1 0
4408 444 2 -8.2999999999999996e-01 5.6447281124647013e+00 3.7930383914427277e+00 1.9684385590876179e+01 -2 -2 0
4455 444 1 4.1499999999999998e-01 3.7327554132324470e+00 3.1100948034097593e+00 1.9220472342328037e+01 0 1 0
2018 444 1 4.1499999999999998e-01 1.0701743259401296e+01 5.9164771967384082e+00 2.1030023478171227e+01 1 0 0
5736 444 1 4.1499999999999998e-01 1.1139383400248581e+01 2.1507160860037873e+00 2.1847674189372206e+01 0 0 0
3935 444 1 4.1499999999999998e-01 5.5764145265507947e+00 3.3765995714151900e+00 2.1363141930110054e+01 2 1 0
3934 444 2 -8.2999999999999996e-01 5.8371707722347717e+00 2.9006701516055107e+00 2.2151640310203103e+01 2 1 0
3860 444 1 4.1499999999999998e-01 3.9597996486783091e+00 2.8060772174355453e+00 2.2913840710146292e+01 2 1 0
3936 444 1 4.1499999999999998e-01 6.7126919718174669e+00 3.2311134339408052e+00 2.2352890914536811e+01 2 1 0
3711 444 1 4.1499999999999998e-01 9.9970971209266207e-02 5.6449498087870680e+00 1.9645855008146757e+01 -2 1 0
2891 444 1 4.1499999999999998e-01 9.0499633408728997e+00 3.3958395433558848e+00 2.2063711941762829e+01 -2 8 0
4409 444 1 4.1499999999999998e-01 5.8295731774540762e+00 4.7148748224855010e+00 1.9864057871099316e+01 -2 -2 0
4453 444 2 -8.2999999999999996e-01 3.0412865270110361e+00 2.9928740316049214e+00 1.8569041608438997e+01 0 1 0
2436 444 1 4.1499999999999998e-01 7.5871867886269735e+00 6.8975040593262351e+00 2.4313044672167010e+01 0 0 0
2890 444 2 -8.2999999999999996e-01 9.3139943622943431e+00 3.1561847554989382e+00 2.1175407097548089e+01 -2 8 0
257 444 1 4.1499999999999998e-01 8.1429972921960641e+00 3.3301801465502048e+00 2.4209510095530195e+01 5 -4 0
256 444 2 -8.2999999999999996e-01 7.9950676075455851e+00 3.9269411405305039e+00 2.3475871684167728e+01 5 -4 0
2892 444 1 4.1499999999999998e-01 9.2971057399945085e+00 3.9806280448368652e+00 2.0689361785106001e+01 -2 8 0
2846 444 1 4.1499999999999998e-01 1.1018943157100538e+00 3.2527075702284494e+00 1.8653440886129594e+01 2 6 0
1090 444 2 -8.2999999999999996e-01 3.1224576135625153e+00 5.6581903884041935e+00 1.8976412132727528e+01 5 -5 0
1013 444 1 4.1499999999999998e-01 6.9289038221832548e+00 7.0163720317485732e+00 2.0612092801366867e+01 1 6 0
1091 444 1 4.1499999999999998e-01 2.6881410286363243e+00 4.8122651189728591e+00 1.9086011314813121e+01 5 -5 0
1789 444 2 -8.2999999999999996e-01 1.3722713268822224e+00 6.2708050553887658e+00 1.7019075375491152e+01 6 1 0
577 444 2 -8.2999999999999996e-01 8.3852460848563428e+00 6.2094081135559662e+00 1.6574922744087818e+01 1 -3 0
1791 444 1 4.1499999999999998e-01 1.9633321091431140e+00 6.7752727372363095e+00 1.6460155096664408e+01 6 1 0
2898 444 1 4.1499999999999998e-01 2.2840709551332239e+00 6.3152557535729050e+00 2.2221265343475679e+01 3 -1 0
1790 444 1 4.1499999999999998e-01 1.9283695530549818e+00 5.9510117749050409e+00 1.7729511983165693e+01 6 1 0
258 444 1 4.1499999999999998e-01 8.3268093455901546e+00 4.7708899958524862e+00 2.3782351591806862e+01 5 -4 0
2897 444 1 4.1499999999999998e-01 2.4340524150211600e+00 4.8599194173320956e+00 2.2610363245803242e+01 3 -1 0
5063 444 1 4.1499999999999998e-01 9.4395316416012935e+00 5.4155234561954337e+00 1.7881796241918259e+01 0 -1 0
5342 444 1 4.1499999999999998e-01 4.6071773171177449e-01 2.7215025598747489e+00 2.2139111560290530e+01 5 5 0
2899 444 2 -8.2999999999999996e-01 5.0556494662416733e-02 3.7206713369005906e-01 2.3945634232161868e+01 6 3 0
3710 444 1 4.1499999999999998e-01 5.8376438664417973e-01 5.8013907890965237e+00 2.1071816308164870e+01 -2 1 0
1092 444 1 4.1499999999999998e-01 3.9989214301052218e+00 5.4387970773010066e+00 1.8660326153570846e+01 5 -5 0
3859 444 2 -8.2999999999999996e-01 3.4003295130646598e+00 3.4103795830606489e+00 2.3401738337294784e+01 2 1 0
3861 444 1 4.1499999999999998e-01 2.5092061032723261e+00 3.1108215248008575e+00 2.3221745941017218e+01 2 1 0
5789 444 1 4.1499999999999998e-01 1.1180709107050564e+01 7.5337450360929221e+00 2.2781214680577115e+01 -1 2 0
769 444 2 -8.2999999999999996e-01 3.6705224657797206e+00 7.6873078272918391e+00 2.1336468722276667e+01 2 1 0
5013 444 1 4.1499999999999998e-01 6.9068633611561152e+00 1.2700592447142975e+00 1.8991394136397222e+01 -1 -5 0
5341 444 2 -8.2999999999999996e-01 7.7839605469371842e-01 2.7492513762213391e+00 2.3041631573514348e+01 5 5 0
5873 444 1 4.1499999999999998e-01 3.2309704971535300e+00 7.2337650336955239e-01 1.9208715013982353e+01 4 4 0
3709 444 2 -8.2999999999999996e-01 2.1501991041538972e-02 6.2105874693923564e+00 2.0414053501837934e+01 -2 1 0
1102 444 2 -8.2999999999999996e-01 1.8744810676870016e+00 7.9224619650257677e-01 2.0587205473485866e+01 1 2 0
3138 444 1 4.1499999999999998e-01 4.6692414200426056e+00 5.7943875809170674e-02 2.1432004763634939e+01 4 1 0
771 444 1 4.1499999999999998e-01 3.6171776673723763e+00 7.3750357725272853e+00 2.0433211912651519e+01 2 1 0
2017 444 2 -8.2999999999999996e-01 1.1089144653524528e+01 5.9699935814228642e+00 2.1903687273256701e+01 1 0 0
5874 444 1 4.1499999999999998e-01 3.6447971643318082e+00 7.0068207350671308e-01 1.7752649078882271e+01 4 4 0
3701 444 1 4.1499999999999998e-01 4.1666294370868201e-01 1.6335486125947138e+00 2.0700706550134328e+01 2 -2 0
5011 444 2 -8.2999999999999996e-01 6.5398865096785936e+00 4.7839961329287234e-01 1.9384885333355964e+01 -1 -5 0
5872 444 2 -8.2999999999999996e-01 3.7338125464674139e+00 2.1478949453059254e-01 1.8572537635322035e+01 4 4 0
1104 444 1 4.1499999999999998e-01 2.7227882881891010e+00 9.1210345671771065e-01 2.1014102616240798e+01 1 2 0
1319 444 1 4.1499999999999998e-01 2.9453364490984379e-01 7.7429898604380449e+00 1.6500984916086338e+01 5 -1 0
4492 444 2 -8.2999999999999996e-01 1.3028368674110031e+00 1.9879630944112467e-01 3.1919092924449576e+01 -7 6 0
4240 444 2 -8.2999999999999996e-01 1.1130756636033066e+01 5.3633660778986547e+00 3.1485089939672584e+01 -2 -1 0
1829 444 1 4.1499999999999998e-01 9.6251559801885256e-01 1.4683263916473819e+00 2.6594290159784947e+01 -2 -3 0
4160 444 1 4.1499999999999998e-01 1.3807298437661821e+00 4.3627231885830815e+00 2.6329503873307058e+01 1 2 0
4493 444 1 4.1499999999999998e-01 1.8516145638958197e+00 9.7266879997812683e-01 3.2046358025595914e+01 -7 6 0
5702 444 1 4.1499999999999998e-01 3.4387039447298786e+00 3.5475884254723572e-01 2.8615069946319007e+01 0 3 0
4754 444 1 4.1499999999999998e-01 1.0458133600904469e+01 4.9184437154726410e+00 2.6292992426183716e+01 0 -5 0
2434 444 2 -8.2999999999999996e-01 8.4229100975020366e+00 6.4350168094037095e+00 2.4375529721716717e+01 0 0 0
635 444 1 4.1499999999999998e-01 2.7717208300326157e-01 6.3425300435541576e+00 3.2359655124613688e+01 1 2 0
2435 444 1 4.1499999999999998e-01 8.9061252637558450e+00 6.9034619732577580e+00 2.5056187584758096e+01 0 0 0
2651 444 1 4.1499999999999998e-01 5.1943742511503480e-02 1.3804035320047476e+00 3.1960001870056974e+01 0 -2 0
5855 444 1 4.1499999999999998e-01 7.6091705390816458e+00 4.7466371412132036e+00 3.2137847277375883e+01 8 -3 0
2723 444 1 4.1499999999999998e-01 1.1201542712628610e+01 6.4769096122367187e-01 2.4635612481622829e+01 -4 -3 0
2484 444 1 4.1499999999999998e-01 4.3588923836412148e+00 1.3433664356121344e+00 3.2451239495031864e+01 -4 1 0
4110 444 1 4.1499999999999998e-01 6.2943381495721074e+00 9.0518799726391186e-01 2.4479990900742969e+01 0 3 0
1238 444 1 4.1499999999999998e-01 2.1007809704030018e+00 7.5566514553541158e+00 2.8153529494888335e+01 5 3 0
837 444 1 4.1499999999999998e-01 6.6021681727171613e+00 4.0782685699615406e+00 2.7494936953203549e+01 -3 0 0
3302 444 1 4.1499999999999998e-01 4.2105479073053296e+00 3.4818730740633446e+00 2.4844600600331340e+01 -3 1 0
3301 444 2 -8.2999999999999996e-01 4.8714897368859393e+00 3.6270301190331540e+00 2.5521592002942619e+01 -3 1 0
3303 444 1 4.1499999999999998e-01 5.5083799384591501e+00 2.9247429198714880e+00 2.5389700131247160e+01 -3 1 0
946 444 2 -8.2999999999999996e-01 5.7484830149361796e+00 7.1954510005618717e+00 2.4987584896248510e+01 2 3 0
1239 444 1 4.1499999999999998e-01 1.3953217813441416e+00 6.5558784866325430e+00 2.7263205443897867e+01 5 3 0
1715 444 1 4.1499999999999998e-01 6.1786535004896255e+00 1.1965987599931198e+00 3.0682350590803299e+01 -1 -1 0
4753 444 2 -8.2999999999999996e-01 9.9912721151937927e+00 4.7357648676144963e+00 2.7108406867382367e+01 0 -5 0
5682 444 1 4.1499999999999998e-01 4.5835120250704815e+00 7.0646619290974701e+00 2.7479228638065333e+01 -2 -2 0
2482 444 2 -8.2999999999999996e-01 3.5586646553863792e+00 1.7696883792421660e+00 3.2144454237456372e+01 -4 1 0
4159 444 2 -8.2999999999999996e-01 1.6069391924386005e+00 5.2512502786112343e+00 2.6054582880634282e+01 1 2 0
5439 444 1 4.1499999999999998e-01 8.0786250051631505e+00 5.6897351592693965e+00 3.0824691334646399e+01 2 1 0
5437 444 2 -8.2999999999999996e-01 8.4845226640062705e+00 4.8666328391091644e+00 3.0552694904416612e+01 2 1 0
1828 444 2 -8.2999999999999996e-01 1.0398662615371916e+00 2.3041022415784855e+00 2.7054429210474204e+01 -2 -3 0
3148 444 2 -8.2999999999999996e-01 6.7420591624972488e+00 1.8248741881748363e+00 2.6059340308367272e+01 0 5 0
3149 444 1 4.1499999999999998e-01 7.5771255099643904e+00 2.0948136289126378e+00 2.5677203205966972e+01 0 5 0
4755 444 1 4.1499999999999998e-01 9.3868013034498414e+00 5.4711365700932699e+00 2.7208783455736135e+01 0 -5 0
4211 444 1 4.1499999999999998e-01 3.9352692947031258e+00 4.5652921685465460e+00 2.9847855641041722e+01 2 0 0
1429 444 2 -8.2999999999999996e-01 3.9280938143922617e+00 5.4283031390003291e+00 2.7282770492934457e+01 2 9 0
1228 444 2 -8.2999999999999996e-01 3.5055688006929988e+00 1.8066555802471060e+00 2.7831884624654801e+01 0 0 0
4212 444 1 4.1499999999999998e-01 4.1592725391007521e+00 4.6738053797477894e+00 3.1341155048902980e+01 2 0 0
2670 444 1 4.1499999999999998e-01 1.0177931264828164e+01 2.2008515425403399e+00 2.5598817064834314e+01 5 2 0
3131 444 1 4.1499999999999998e-01 9.6150321844029651e+00 2.3696244878353323e-01 2.6776769284571696e+01 4 1 0
2669 444 1 4.1499999999999998e-01 9.3730259472912003e+00 3.0698731607942067e+00 2.6541591780172066e+01 5 2 0
4210 444 2 -8.2999999999999996e-01 4.2629029024989009e+00 4.0748386882826910e+00 3.0601741353546732e+01 2 0 0
2668 444 2 -8.2999999999999996e-01 9.2844947037823644e+00 2.3640972880935203e+00 2.5901065011506667e+01 5 2 0
882 444 1 4.1499999999999998e-01 8.9018387014924882e-01 1.6000047316049018e-01 2.9786000032740688e+01 5 -2 0
3150 444 1 4.1499999999999998e-01 6.9850931362029769e+00 1.2550691056129075e+00 2.6789058418185846e+01 0 5 0
5438 444 1 4.1499999999999998e-01 8.0425840132552171e+00 4.6400142905190442e+00 2.9734424108073611e+01 2 1 0
1714 444 2 -8.2999999999999996e-01 5.9457386213434775e+00 9.8327512530408756e-01 2.9778759911125913e+01 -1 -1 0
4242 444 1 4.1499999999999998e-01 1.0266798759731429e+01 5.0885663634720499e+00 3.1178015579757243e+01 -2 -1 0
1230 444 1 4.1499999999999998e-01 4.0054904341666990e+00 2.0369316411779503e+00 2.7048760485131442e+01 0 0 0
1229 444 1 4.1499999999999998e-01 2.6771767122854913e+00 2.2762424209288126e+00 2.7734478232336976e+01 0 0 0
835 444 2 -8.2999999999999996e-01 6.6118023788061357e+00 4.7583404109045837e+00 2.8168466197973881e+01 -3 0 0
176 444 1 4.1499999999999998e-01 8.5738235169090604e+00 7.0817883054378408e+00 2.8353374132851457e+01 -1 5 0
948 444 1 4.1499999999999998e-01 5.3568756064158629e+00 6.3854167884926367e+00 2.4660904329640847e+01 2 3 0
1431 444 1 4.1499999999999998e-01 3.0493855326046644e+00 5.5125172582373070e+00 2.6912619564770054e+01 2 9 0
1430 444 1 4.1499999999999998e-01 4.3569908444445593e+00 4.7704241188733612e+00 2.6735527841461959e+01 2 9 0
987 444 1 4.1499999999999998e-01 1.1056445481036581e+01 3.2804918053709158e+00 2.8214702390724227e+01 1 3 0
177 444 1 4.1499999999999998e-01 7.6082321809651239e+00 6.0153170465106340e+00 2.7882027394100696e+01 -1 5 0
1716 444 1 4.1499999999999998e-01 5.3538090441579005e+00 1.6862920895886178e+00 2.9511142659551496e+01 -1 -1 0
175 444 2 -8.2999999999999996e-01 8.3167117813374354e+00 6.5826990429200549e+00 2.7578109301020881e+01 -1 5 0
836 444 1 4.1499999999999998e-01 5.7357607099168177e+00 5.1425340039149541e+00 2.8134133786969759e+01 -3 0 0
1325 444 1 4.1499999999999998e-01 4.6836677280343233e+00 7.3263455962538648e+00 3.2124946619737770e+01 3 1 0
101 444 1 4.1499999999999998e-01 2.5312652979890733e+00 5.7578965561572097e+00 3.2428631479777991e+01 2 -3 0
2483 444 1 4.1499999999999998e-01 3.8644875942774748e+00 2.5508658645661613e+00 3.1683511777514461e+01 -4 1 0
947 444 1 4.1499999999999998e-01 5.4358048359249045e+00 7.2664728640378309e+00 2.5889483165257698e+01 2 3 0
1830 444 1 4.1499999999999998e-01 1.6391990079274854e-01 2.4675327256346051e+00 2.7404060277226407e+01 -2 -3 0
1702 444 2 -8.2999999999999996e-01 7.7872490415745901e+00 7.2141385853996658e+00 3.2351553415877319e+01 1 0 0
1704 444 1 4.1499999999999998e-01 7.0852834542569960e+00 7.7751355936999431e+00 3.2021767708148722e+01 1 0 0
4161 444 1 4.1499999999999998e-01 1.1406270919080166e+00 5.3725955661538825e+00 2.5227503442082845e+01 1 2 0
1237 444 2 -8.2999999999999996e-01 1.4633260987639187e+00 7.4937229245245254e+00 2.7442246529133541e+01 5 3 0
3313 444 2 -8.2999999999999996e-01 5.1144376665292643e+00 9.0727175960017545e-02 3.4044774435292638e+01 2 -1 0
636 444 1 4.1499999999999998e-01 3.8407182922253391e-01 7.2621519109821637e+00 3.3557471252485705e+01 1 2 0
1703 444 1 4.1499999999999998e-01 7.3874436025329500e+00 6.7285363868521904e+00 3.3073064333260824e+01 1 0 0
218 444 1 4.1499999999999998e-01 1.0751889798012378e+01 6.5539442070916660e+00 3.6711914271484886e+01 6 -4 0