LAMMPS data file via write_data, version 11 Aug 2017, timestep = 5000000

7158 atoms
4 atom types
4000 bonds
1 bond types
2000 angles
1 angle types

0.0000000000000000e+00 4.5679949999999998e+01 xlo xhi
0.0000000000000000e+00 4.6885919999999999e+01 ylo yhi
0.0000000000000000e+00 6.5000000000000000e+01 zlo zhi

Masses

1 1.0079
2 15.9994
3 22.9898
4 107.868

Bond Coeffs # harmonic

1 450 0.9572

Angle Coeffs # harmonic

1 55 104.52

Atoms # full

6007 444 4 0.0000000000000000e+00 1.6907200000000000e+00 0.0000000000000000e+00 0.0000000000000000e+00 0 0 0
6008 444 4 0.0000000000000000e+00 4.2285000000000004e+00 1.4651900000000000e+00 0.0000000000000000e+00 0 0 0
6009 444 4 -2.0830000000000001e-02 1.6907700000000001e+00 0.0000000000000000e+00 7.1781499999999996e+00 0 0 0
6010 444 4 -2.0830000000000001e-02 4.2285500000000003e+00 1.4651900000000000e+00 7.1781499999999996e+00 0 0 0
6011 444 4 0.0000000000000000e+00 2.5366499999999998e+00 1.4651900000000000e+00 2.3926400000000001e+00 0 0 0
6012 444 4 0.0000000000000000e+00 5.0744199999999999e+00 0.0000000000000000e+00 2.3926400000000001e+00 0 0 0
6013 444 4 0.0000000000000000e+00 8.4509000000000001e-01 1.4651900000000000e+00 4.7824200000000001e+00 0 0 0
6014 444 4 0.0000000000000000e+00 3.3828600000000000e+00 0.0000000000000000e+00 4.7824499999999999e+00 0 0 0
6015 444 4 0.0000000000000000e+00 1.6907200000000000e+00 2.9303699999999999e+00 0.0000000000000000e+00 0 0 0
6016 444 4 0.0000000000000000e+00 4.2285000000000004e+00 4.3955599999999997e+00 0.0000000000000000e+00 0 0 0
6017 444 4 -2.0830000000000001e-02 1.6907700000000001e+00 2.9303699999999999e+00 7.1781899999999998e+00 0 0 0
6018 444 4 -2.0830000000000001e-02 4.2285500000000003e+00 4.3955599999999997e+00 7.1781600000000001e+00 0 0 0
6019 444 4 0.0000000000000000e+00 2.5366499999999998e+00 4.3955599999999997e+00 2.3926400000000001e+00 0 0 0
6020 444 4 0.0000000000000000e+00 5.0744199999999999e+00 2.9303699999999999e+00 2.3926400000000001e+00 0 0 0
6021 444 4 0.0000000000000000e+00 8.4509000000000001e-01 4.3955599999999997e+00 4.7824499999999999e+00 0 0 0
6022 444 4 0.0000000000000000e+00 3.3828700000000000e+00 2.9303699999999999e+00 4.7824400000000002e+00 0 0 0
6023 444 4 0.0000000000000000e+00 1.6907200000000000e+00 5.8607399999999998e+00 0.0000000000000000e+00 0 0 0
6024 444 4 0.0000000000000000e+00 4.2285000000000004e+00 7.3259299999999996e+00 0.0000000000000000e+00 0 0 0
6025 444 4 -2.0830000000000001e-02 1.6907700000000001e+00 5.8607399999999998e+00 7.1781499999999996e+00 0 0 0
6026 444 4 -2.0830000000000001e-02 4.2285500000000003e+00 7.3259299999999996e+00 7.1781499999999996e+00 0 0 0
6027 444 4 0.0000000000000000e+00 2.5366499999999998e+00 7.3259299999999996e+00 2.3926400000000001e+00 0 0 0
6028 444 4 0.0000000000000000e+00 5.0744199999999999e+00 5.8607399999999998e+00 2.3926400000000001e+00 0 0 0
6029 444 4 0.0000000000000000e+00 8.4509000000000001e-01 7.3259299999999996e+00 4.7824200000000001e+00 0 0 0
6030 444 4 0.0000000000000000e+00 3.3828600000000000e+00 5.8607399999999998e+00 4.7824499999999999e+00 0 0 0
6135 444 4 0.0000000000000000e+00 6.7662699999999996e+00 0.0000000000000000e+00 0.0000000000000000e+00 0 0 0
6137 444 4 -2.0830000000000001e-02 6.7663200000000003e+00 0.0000000000000000e+00 7.1781499999999996e+00 0 0 0
6139 444 4 0.0000000000000000e+00 7.6121999999999996e+00 1.4651900000000000e+00 2.3926400000000001e+00 0 0 0
6141 444 4 0.0000000000000000e+00 5.9206399999999997e+00 1.4651900000000000e+00 4.7824200000000001e+00 0 0 0
6143 444 4 0.0000000000000000e+00 6.7662699999999996e+00 2.9303699999999999e+00 0.0000000000000000e+00 0 0 0
6145 444 4 -2.0830000000000001e-02 6.7663200000000003e+00 2.9303699999999999e+00 7.1781899999999998e+00 0 0 0
6147 444 4 0.0000000000000000e+00 7.6121999999999996e+00 4.3955599999999997e+00 2.3926400000000001e+00 0 0 0
6149 444 4 0.0000000000000000e+00 5.9206399999999997e+00 4.3955599999999997e+00 4.7824499999999999e+00 0 0 0
6151 444 4 0.0000000000000000e+00 6.7662699999999996e+00 5.8607399999999998e+00 0.0000000000000000e+00 0 0 0
6153 444 4 -2.0830000000000001e-02 6.7663200000000003e+00 5.8607399999999998e+00 7.1781499999999996e+00 0 0 0
6155 444 4 0.0000000000000000e+00 7.6121999999999996e+00 7.3259299999999996e+00 2.3926400000000001e+00 0 0 0
6157 444 4 0.0000000000000000e+00 5.9206399999999997e+00 7.3259299999999996e+00 4.7824200000000001e+00 0 0 0
6136 444 4 0.0000000000000000e+00 9.3040500000000002e+00 1.4651900000000000e+00 0.0000000000000000e+00 0 0 0
6138 444 4 -2.0830000000000001e-02 9.3041000000000000e+00 1.4651900000000000e+00 7.1781499999999996e+00 0 0 0
6140 444 4 0.0000000000000000e+00 1.0149970000000000e+01 0.0000000000000000e+00 2.3926400000000001e+00 0 0 0
6142 444 4 0.0000000000000000e+00 8.4584100000000007e+00 0.0000000000000000e+00 4.7824499999999999e+00 0 0 0
6144 444 4 0.0000000000000000e+00 9.3040500000000002e+00 4.3955599999999997e+00 0.0000000000000000e+00 0 0 0
6146 444 4 -2.0830000000000001e-02 9.3041000000000000e+00 4.3955599999999997e+00 7.1781600000000001e+00 0 0 0
6148 444 4 0.0000000000000000e+00 1.0149970000000000e+01 2.9303699999999999e+00 2.3926400000000001e+00 0 0 0
6150 444 4 0.0000000000000000e+00 8.4584200000000003e+00 2.9303699999999999e+00 4.7824400000000002e+00 0 0 0
6152 444 4 0.0000000000000000e+00 9.3040500000000002e+00 7.3259299999999996e+00 0.0000000000000000e+00 0 0 0
6154 444 4 -2.0830000000000001e-02 9.3041000000000000e+00 7.3259299999999996e+00 7.1781499999999996e+00 0 0 0
6156 444 4 0.0000000000000000e+00 1.0149970000000000e+01 5.8607399999999998e+00 2.3926400000000001e+00 0 0 0
6158 444 4 0.0000000000000000e+00 8.4584100000000007e+00 5.8607399999999998e+00 4.7824499999999999e+00 0 0 0
6269 444 4 0.0000000000000000e+00 1.0996190000000000e+01 1.4651900000000000e+00 4.7824200000000001e+00 0 0 0
6277 444 4 0.0000000000000000e+00 1.0996190000000000e+01 4.3955599999999997e+00 4.7824499999999999e+00 0 0 0
6285 444 4 0.0000000000000000e+00 1.0996190000000000e+01 7.3259299999999996e+00 4.7824200000000001e+00 0 0 0
2284 444 2 -8.2999999999999996e-01 1.0634463652045509e+01 3.8055838482386481e+00 1.0369584901107087e+01 -1 2 0
5346 444 1 4.1499999999999998e-01 4.9209929129678045e+00 5.6238776009525253e+00 1.0662294086470423e+01 1 2 0
1306 444 2 -8.2999999999999996e-01 8.3746330327948844e+00 6.8305499266378726e+00 1.0221020254008817e+01 0 5 0
1852 444 2 -8.2999999999999996e-01 6.3897346822488101e+00 4.7031916697236831e+00 1.0737280672287568e+01 2 4 0
1308 444 1 4.1499999999999998e-01 9.2053846283179706e+00 6.5133386852514530e+00 1.0575225084645016e+01 0 5 0
1307 444 1 4.1499999999999998e-01 8.5773546976673654e+00 7.6999289034811031e+00 9.8755985302137503e+00 0 5 0
1854 444 1 4.1499999999999998e-01 6.9567580266936613e+00 3.9478635029447786e+00 1.0892830497058947e+01 2 4 0
1853 444 1 4.1499999999999998e-01 6.9721441442184746e+00 5.3693570503090431e+00 1.0372239908268373e+01 2 4 0
2286 444 1 4.1499999999999998e-01 9.8690998042043958e+00 3.4970877706563659e+00 1.0854641913479847e+01 -1 2 0
2285 444 1 4.1499999999999998e-01 1.0725416533649074e+01 4.7239698526139104e+00 1.0623606388091867e+01 -1 2 0
2417 444 1 4.1499999999999998e-01 3.5386492525247490e+00 3.8171654040946841e+00 9.9822970258486876e+00 3 0 0
2416 444 2 -8.2999999999999996e-01 3.4607166670518108e+00 2.9815085827159638e+00 1.0442553803276644e+01 3 0 0
2418 444 1 4.1499999999999998e-01 2.5211562035690656e+00 2.7987772852929469e+00 1.0450793526213959e+01 3 0 0
1611 444 1 4.1499999999999998e-01 5.5647090924989824e+00 3.9429044847122161e+00 1.2811704880379041e+01 1 2 0
1610 444 1 4.1499999999999998e-01 4.2323397176078537e+00 3.6667579661259930e+00 1.2148055692669956e+01 1 2 0
1609 444 2 -8.2999999999999996e-01 4.6336531910002465e+00 3.8281301396967748e+00 1.3001952231794167e+01 1 2 0
4440 444 1 4.1499999999999998e-01 1.6313586360979910e+00 5.6704205676283503e-01 1.2557483391177840e+01 -2 -2 0
5345 444 1 4.1499999999999998e-01 4.1371309350748877e+00 6.5841419318629333e+00 9.7931861624413479e+00 1 2 0
4235 444 1 4.1499999999999998e-01 7.7543819295419230e+00 1.5690339089361693e+00 1.0499631743732397e+01 6 2 0
4786 444 2 -8.2999999999999996e-01 1.1107650617907638e+01 6.2143436159290220e+00 1.1417607752333355e+01 1 -2 0
3488 444 1 4.1499999999999998e-01 8.4443543543639326e+00 3.0757513518579436e+00 1.3694647627570054e+01 1 -2 0
3487 444 2 -8.2999999999999996e-01 7.8218491372087504e+00 2.4383162725724699e+00 1.4044499443269547e+01 1 -2 0
5344 444 2 -8.2999999999999996e-01 4.0279120346800648e+00 5.8862626963204363e+00 1.0439148861007554e+01 1 2 0
3830 444 1 4.1499999999999998e-01 3.9680212806804263e+00 3.6763843371151816e+00 1.6051587680122644e+01 -3 1 0
3829 444 2 -8.2999999999999996e-01 3.6579130836078568e+00 2.9389675276898468e+00 1.5525962629096101e+01 -3 1 0
4787 444 1 4.1499999999999998e-01 1.1271260711639938e+01 6.9163315087121049e+00 1.2047430454447865e+01 1 -2 0
3957 444 1 4.1499999999999998e-01 2.1545162793375483e+00 5.6246081514336597e+00 1.0467095416526352e+01 -5 2 0
3831 444 1 4.1499999999999998e-01 3.8287398389120479e+00 3.2005384552264573e+00 1.4621179753134626e+01 -3 1 0
3489 444 1 4.1499999999999998e-01 7.2282157438156442e+00 2.9561260994177099e+00 1.4588287593605200e+01 1 -2 0
676 444 2 -8.2999999999999996e-01 1.1234896327348828e+01 5.6934551662737736e+00 1.5699883455667408e+01 1 -2 0
4234 444 2 -8.2999999999999996e-01 7.9149707453827363e+00 2.4994302841283544e+00 1.0342130962933256e+01 6 2 0
5662 444 2 -8.2999999999999996e-01 2.8982080271580895e+00 6.6608336377813737e+00 1.3020464228534868e+01 1 0 0
4168 444 2 -8.2999999999999996e-01 9.9183489588601361e+00 4.7685607346666394e+00 1.3434087820358213e+01 2 0 0
3955 444 2 -8.2999999999999996e-01 1.2282468404436524e+00 5.4216753435006870e+00 1.0336420453673792e+01 -5 2 0
1629 444 1 4.1499999999999998e-01 6.7171978478260268e+00 6.3688401757197219e+00 1.5625490466538469e+01 0 -1 0
743 444 1 4.1499999999999998e-01 4.9338906355759606e+00 1.6396459827759542e+00 1.0520449891426491e+01 2 -1 0
1061 444 1 4.1499999999999998e-01 4.4358312143665106e+00 1.2672830654928802e+00 1.5122430033815704e+01 -2 3 0
4236 444 1 4.1499999999999998e-01 8.0358416616499380e+00 2.5651119638452400e+00 9.3948673744331206e+00 6 2 0
5386 444 2 -8.2999999999999996e-01 2.7841386776509415e-02 5.4467972120349684e+00 1.5045862388714376e+01 -1 4 0
1060 444 2 -8.2999999999999996e-01 4.9471434009889226e+00 5.2396012985896356e-01 1.5442215899350151e+01 -2 3 0
3956 444 1 4.1499999999999998e-01 1.1584587024012587e+00 4.4860664562869976e+00 1.0526152988791402e+01 -5 2 0
5663 444 1 4.1499999999999998e-01 2.8479676658532469e+00 6.5775208179551017e+00 1.3972707554262646e+01 1 0 0
4438 444 2 -8.2999999999999996e-01 2.1446470919735861e+00 6.4458155851915533e-01 1.1753272476862918e+01 -2 -2 0
4439 444 1 4.1499999999999998e-01 1.7997411158971304e+00 1.4269339043183722e+00 1.1322927297495820e+01 -2 -2 0
5664 444 1 4.1499999999999998e-01 3.5160407378360206e+00 5.9806777256615895e+00 1.2752317372831614e+01 1 0 0
5796 444 1 4.1499999999999998e-01 8.5854864431679268e+00 5.7443399762267848e+00 1.4156455465071719e+01 -3 3 0
4170 444 1 4.1499999999999998e-01 1.0372667005126019e+01 5.1449859862794405e+00 1.4187832503194080e+01 2 0 0
747 444 1 4.1499999999999998e-01 4.2089722459645387e+00 6.6340370893948837e+00 1.5874227516688743e+01 0 1 0
745 444 2 -8.2999999999999996e-01 3.3410283201665716e+00 7.0112565551591324e+00 1.5730663243083802e+01 0 1 0
1062 444 1 4.1499999999999998e-01 5.7670769339566093e+00 5.6726735127214056e-01 1.4950214463433777e+01 -2 3 0
4169 444 1 4.1499999999999998e-01 1.0191526661729650e+01 5.3106107459643548e+00 1.2693961069532481e+01 2 0 0
4561 444 2 -8.2999999999999996e-01 6.9489883883544818e+00 7.7759347125241796e+00 1.2515743994887327e+01 -3 5 0
5794 444 2 -8.2999999999999996e-01 7.7157541200482083e+00 5.9752690983471979e+00 1.4482752417845269e+01 -3 3 0
5388 444 1 4.1499999999999998e-01 6.0445283105729963e-01 6.1719151055393500e+00 1.5286601174836932e+01 -1 4 0
5080 444 2 -8.2999999999999996e-01 8.4886491335064396e-01 2.9364616116738427e+00 1.0828231802887654e+01 -4 1 0
5279 444 1 4.1499999999999998e-01 2.7988192930892936e-01 6.6787531581456667e+00 1.1518900895511946e+01 6 0 0
5082 444 1 4.1499999999999998e-01 3.2679501752500290e-01 2.9479079305067124e+00 1.1630443662781861e+01 -4 1 0
3109 444 2 -8.2999999999999996e-01 6.9068760783336538e+00 3.8122652478224475e+00 1.6195700719756850e+01 1 0 0
2895 444 1 4.1499999999999998e-01 1.7852878780957734e-01 1.9356414961829531e+00 1.3678595837915449e+01 0 3 0
5278 444 2 -8.2999999999999996e-01 4.2097061721548873e-01 7.5676535941752476e+00 1.1844757725707824e+01 6 0 0
1033 444 2 -8.2999999999999996e-01 9.1072339718281157e+00 4.9061591954540446e-01 1.5807628268889411e+01 -2 3 0
2894 444 1 4.1499999999999998e-01 9.1498137564703141e-01 1.1435511174971125e+00 1.4737900152093031e+01 0 3 0
5081 444 1 4.1499999999999998e-01 2.0468480169947029e-01 2.9857644289174328e+00 1.0121950646258435e+01 -4 1 0
5280 444 1 4.1499999999999998e-01 1.3517499731055231e+00 7.5971878689104635e+00 1.2066141174472731e+01 6 0 0
744 444 1 4.1499999999999998e-01 4.0347285824427601e+00 4.9764080920157133e-01 1.0943802038733859e+01 2 -1 0
742 444 2 -8.2999999999999996e-01 4.9428077099012535e+00 7.0402918492972533e-01 1.0722376940171566e+01 2 -1 0
5721 444 1 4.1499999999999998e-01 7.3148277610329560e+00 8.6477190212062915e-01 1.3528659096061116e+01 4 0 0
5795 444 1 4.1499999999999998e-01 7.3664266073266393e+00 6.5796965752448200e+00 1.3827870424670781e+01 -3 3 0
4563 444 1 4.1499999999999998e-01 7.1360098384223365e+00 7.3156737321541705e+00 1.1697566105563824e+01 -3 5 0
2893 444 2 -8.2999999999999996e-01 4.7342014854435327e-01 1.0507717639947471e+00 1.3893715615013463e+01 0 3 0
1035 444 1 4.1499999999999998e-01 8.6566272455457085e+00 8.2091575415014995e-01 1.5030397629716028e+01 -2 3 0
1034 444 1 4.1499999999999998e-01 1.0008428440740373e+01 3.4598952410182743e-01 1.5519247133169344e+01 -2 3 0
4904 444 1 4.1499999999999998e-01 6.4575626395822123e+00 7.2820220372402003e-02 1.0334554898995709e+01 3 1 0
2959 444 2 -8.2999999999999996e-01 1.0265587712191222e+01 1.8359034084160408e+00 1.7539135193786354e+01 1 -2 0
1627 444 2 -8.2999999999999996e-01 6.0657127490927572e+00 6.3302803011971873e+00 1.6325713429516970e+01 0 -1 0
3110 444 1 4.1499999999999998e-01 6.5774197864995685e+00 4.7023497333005206e+00 1.6319958669987841e+01 1 0 0
489 444 1 4.1499999999999998e-01 9.8647060956310515e+00 5.1501306899188570e+00 1.6716333176788051e+01 -4 2 0
4095 444 1 4.1499999999999998e-01 5.2092467229806072e-01 3.3233336271733921e-01 1.7362986691156596e+01 2 -4 0
3846 444 1 4.1499999999999998e-01 8.6332114492478897e+00 1.7731041477302063e+00 1.8207417369912708e+01 0 3 0
3425 444 1 4.1499999999999998e-01 1.4208417240046789e+00 1.9301348678027603e+00 1.7245978544208182e+01 6 5 0
3424 444 2 -8.2999999999999996e-01 1.8405474936379607e+00 1.3849636848582723e+00 1.6580495774793381e+01 6 5 0
990 444 1 4.1499999999999998e-01 8.3012452903088505e+00 7.3170352870147051e+00 2.1006371630094652e+01 -2 1 0
1628 444 1 4.1499999999999998e-01 6.2542107907816042e+00 7.0939164896742657e+00 1.6871204148935714e+01 0 -1 0
4712 444 1 4.1499999999999998e-01 6.4635581299714291e+00 2.7006362392526091e+00 1.9054466391004972e+01 5 3 0
2960 444 1 4.1499999999999998e-01 1.0022131676768826e+01 2.7615089094425924e+00 1.7524456406917295e+01 1 -2 0
4711 444 2 -8.2999999999999996e-01 5.7691050471612062e+00 3.3161925738011231e+00 1.8819823657340951e+01 5 3 0
2404 444 2 -8.2999999999999996e-01 1.3432540235486432e+00 1.5909302814129793e+00 2.4158527549686518e+01 1 5 0
2524 444 2 -8.2999999999999996e-01 8.6134907950306285e+00 6.1914709121089340e+00 2.4329279293553153e+01 1 0 0
2525 444 1 4.1499999999999998e-01 9.0183624921028631e+00 6.3351303057863166e+00 2.3473900055335534e+01 1 0 0
513 444 1 4.1499999999999998e-01 1.0240306571892441e+01 7.6586304145098598e+00 2.1518200287705685e+01 0 4 0
989 444 1 4.1499999999999998e-01 6.8545492772738195e+00 6.9608959316455703e+00 2.0737800169224638e+01 -2 1 0
3868 444 2 -8.2999999999999996e-01 3.0899129143116377e-01 2.5073381420533911e+00 1.8651331439963137e+01 0 0 0
2405 444 1 4.1499999999999998e-01 1.4955977161101268e+00 1.2982660242164901e+00 2.3259989130000513e+01 1 5 0
2329 444 2 -8.2999999999999996e-01 1.9628553493539354e+00 9.8878198936328421e-01 2.1168233189334750e+01 -2 3 0
3426 444 1 4.1499999999999998e-01 2.5970763608005059e+00 1.8963598166796916e+00 1.6293494130959978e+01 6 5 0
487 444 2 -8.2999999999999996e-01 9.2715361779176266e+00 4.5682781256084590e+00 1.7191547797105731e+01 -4 2 0
390 444 1 4.1499999999999998e-01 3.3720876185169137e+00 3.6694823908450536e+00 2.0665351652834691e+01 -3 -1 0
5297 444 1 4.1499999999999998e-01 1.7775591550480723e+00 5.7847492812671986e+00 2.0771684735597468e+01 3 0 0
2730 444 1 4.1499999999999998e-01 5.0545714305820573e+00 6.1893965937420843e+00 1.9097930735755863e+01 2 -6 0
127 444 2 -8.2999999999999996e-01 1.8770783055938334e+00 4.7818805728430442e+00 2.3252790650166578e+01 2 2 0
129 444 1 4.1499999999999998e-01 2.0341606120544515e+00 5.0547125376415067e+00 2.2348843867196699e+01 2 2 0
2729 444 1 4.1499999999999998e-01 4.8560230452252728e+00 6.6610282775012255e+00 2.0522724676834827e+01 2 -6 0
4430 444 1 4.1499999999999998e-01 8.8690106985520210e+00 1.0490259641884945e+00 1.9993126961124961e+01 -1 -1 0
128 444 1 4.1499999999999998e-01 9.5516963869784099e-01 4.5248807903660442e+00 2.3269143840020078e+01 2 2 0
4308 444 1 4.1499999999999998e-01 6.3721209691410063e-01 7.6805636174398106e+00 2.0015487927230787e+01 2 1 0
2728 444 2 -8.2999999999999996e-01 4.3766391570612138e+00 6.4491238818747867e+00 1.9721774959904341e+01 2 -6 0
388 444 2 -8.2999999999999996e-01 3.7408932979591083e+00 2.7952461588966404e+00 2.0539156374823850e+01 -3 -1 0
389 444 1 4.1499999999999998e-01 4.3926854343423125e+00 2.9073364267683459e+00 1.9847177569629824e+01 -3 -1 0
5296 444 2 -8.2999999999999996e-01 2.4391068808270884e+00 5.1000917304845750e+00 2.0870833715452530e+01 3 0 0
3111 444 1 4.1499999999999998e-01 7.8389752651246223e+00 3.8698718353479209e+00 1.6405711345695067e+01 1 0 0
131 444 1 4.1499999999999998e-01 4.9871594236600005e+00 1.3183577836190186e+00 2.1665867882991165e+01 3 5 0
2330 444 1 4.1499999999999998e-01 2.6608223973920957e+00 1.6261046381280657e+00 2.1016926523476378e+01 -2 3 0
512 444 1 4.1499999999999998e-01 1.0946732304882357e+01 6.3225441876775905e+00 2.1606130394306735e+01 0 4 0
5707 444 2 -8.2999999999999996e-01 1.0677598542995572e+01 5.9319058245552947e-01 2.3222386226814429e+01 -3 -3 0
130 444 2 -8.2999999999999996e-01 5.2600768603861727e+00 5.1705708349506696e-01 2.2112707552298943e+01 3 5 0
988 444 2 -8.2999999999999996e-01 7.7172386843958760e+00 6.9863697533746469e+00 2.0323855080045643e+01 -2 1 0
5237 444 1 4.1499999999999998e-01 4.4113001444754971e+00 3.3862916534925764e+00 2.2278504728227283e+01 0 1 0
2331 444 1 4.1499999999999998e-01 1.2228726881201990e+00 1.3175509566044941e+00 2.0657774108065883e+01 -2 3 0
5236 444 2 -8.2999999999999996e-01 4.4764442263612541e+00 4.0579345923795929e+00 2.2957389325952793e+01 0 1 0
4713 444 1 4.1499999999999998e-01 5.7066169994255596e+00 3.2555196569106091e+00 1.7866594460050191e+01 5 3 0
3230 444 1 4.1499999999999998e-01 5.7381472069908863e+00 9.0865909188632554e-01 2.4203790242086388e+01 0 1 0
5238 444 1 4.1499999999999998e-01 3.5797217925247473e+00 4.3733707668075423e+00 2.3069736515382498e+01 0 1 0
2797 444 2 -8.2999999999999996e-01 8.5264510015714681e+00 2.0676987974082430e+00 2.3611476626330401e+01 -4 -1 0
2799 444 1 4.1499999999999998e-01 8.2063723990745583e+00 2.2411002862039409e+00 2.2726200700590269e+01 -4 -1 0
2798 444 1 4.1499999999999998e-01 9.2418877540463544e+00 1.4434939981662394e+00 2.3490024897117404e+01 -4 -1 0
5298 444 1 4.1499999999999998e-01 3.2254068417550945e+00 5.4656234279505416e+00 2.0465431631499193e+01 3 0 0
3623 444 1 4.1499999999999998e-01 5.3821805041858370e+00 5.7782807614763039e+00 2.2417461303197900e+01 3 -6 0
4429 444 2 -8.2999999999999996e-01 9.3161032392300633e+00 7.0564222828611767e-01 2.0766708066468414e+01 -1 -1 0
2406 444 1 4.1499999999999998e-01 3.9103656779336343e-01 1.6553788506991367e+00 2.4231745516815504e+01 1 5 0
488 444 1 4.1499999999999998e-01 9.2571172091288094e+00 4.9163376341167169e+00 1.8083107397666673e+01 -4 2 0
3622 444 2 -8.2999999999999996e-01 5.6171788611218254e+00 6.6395714930101102e+00 2.2072228131425245e+01 3 -6 0
3844 444 2 -8.2999999999999996e-01 7.8988326292109905e+00 1.4015602235433728e+00 1.8696166304678780e+01 0 3 0
3845 444 1 4.1499999999999998e-01 7.7345782046540297e+00 5.5676134579835934e-01 1.8277158551883684e+01 0 3 0
5708 444 1 4.1499999999999998e-01 1.0243426086917836e+01 3.2175623487757599e-02 2.2579744127523650e+01 -3 -3 0
5368 444 2 -8.2999999999999996e-01 1.1058356667049974e+01 6.8176367215719367e+00 1.8529971423348215e+01 -3 -1 0
511 444 2 -8.2999999999999996e-01 1.0219622559881692e+01 6.8203886806833687e+00 2.1979887409569237e+01 0 4 0
3624 444 1 4.1499999999999998e-01 5.7198719721550288e+00 7.1895702784246343e+00 2.2848879496319217e+01 3 -6 0
2961 444 1 4.1499999999999998e-01 9.8299416524538952e+00 1.4610006221919882e+00 1.6773699188316819e+01 1 -2 0
4306 444 2 -8.2999999999999996e-01 7.5766214161748446e-01 7.5889458236065277e+00 2.0960649198461251e+01 2 1 0
4431 444 1 4.1499999999999998e-01 9.8744749693400458e+00 4.9172005712858936e-03 2.0429903458828658e+01 -1 -1 0
5709 444 1 4.1499999999999998e-01 1.0797732598423636e+01 3.2080307255538829e-02 2.3988516611021574e+01 -3 -3 0
5370 444 1 4.1499999999999998e-01 1.1418736725958214e+01 6.4780306282456772e+00 1.9349133060857991e+01 -3 -1 0
3870 444 1 4.1499999999999998e-01 1.1384656365954982e-02 3.4087440633958086e+00 1.8774334358018059e+01 0 0 0
3231 444 1 4.1499999999999998e-01 6.7148221567954343e+00 1.8237771719028073e+00 2.4911293051457548e+01 0 1 0
5442 444 1 4.1499999999999998e-01 2.5660782960179160e+00 8.8566620200096180e-01 2.5452484614380950e+01 1 3 0
4030 444 2 -8.2999999999999996e-01 6.2028438978792009e+00 1.6063331105950857e-01 3.0746579256920999e+01 -1 -1 0
5462 444 1 4.1499999999999998e-01 2.9657350006366516e+00 7.1514065135260276e+00 2.7723039628598954e+01 3 -1 0
4032 444 1 4.1499999999999998e-01 5.3496357235732663e+00 5.0375474473347026e-01 3.1012165112308910e+01 -1 -1 0
2905 444 2 -8.2999999999999996e-01 1.5945970847721491e-01 2.7115455165124844e+00 3.1364371847108877e+01 0 3 0
5022 444 1 4.1499999999999998e-01 5.7804608905161254e+00 3.3581371710015362e-01 2.6502081078777813e+01 -3 9 0
2906 444 1 4.1499999999999998e-01 7.7341452759583729e-01 2.0048862487304668e+00 3.1164558574288478e+01 0 3 0
3257 444 1 4.1499999999999998e-01 5.0071857455273125e+00 7.1952703417476371e+00 3.2048854911512734e+01 3 -2 0
48 444 1 4.1499999999999998e-01 3.1291379763639726e-01 7.4052546958977281e+00 2.4871827741696492e+01 4 -3 0
5671 444 2 -8.2999999999999996e-01 1.1145319101736911e+01 9.8518454029514968e-01 2.7528305776882952e+01 -2 -4 0
950 444 1 4.1499999999999998e-01 2.3063001448614742e+00 2.6798496278345207e+00 2.7986907423575094e+01 3 -2 0
5463 444 1 4.1499999999999998e-01 1.7055773893763280e+00 7.0497631656326840e+00 2.8555846155421747e+01 3 -1 0
5461 444 2 -8.2999999999999996e-01 2.0598498434621431e+00 7.4576505163691751e+00 2.7765687362547137e+01 3 -1 0
5268 444 1 4.1499999999999998e-01 2.8136440438394845e+00 5.8704682291657715e+00 2.4389481836494415e+01 1 -2 0
5672 444 1 4.1499999999999998e-01 1.1173031052847918e+01 1.4984087810322255e+00 2.8335811268994057e+01 -2 -4 0
2526 444 1 4.1499999999999998e-01 8.5752611149882014e+00 7.0617912446672637e+00 2.4725906677443870e+01 1 0 0
169 444 2 -8.2999999999999996e-01 9.8458867685677909e+00 2.2367332237949633e-01 3.2355838602974679e+01 1 1 0
5440 444 2 -8.2999999999999996e-01 3.2450093816720127e+00 2.9724726023948667e-01 2.5782708225167053e+01 1 3 0
3069 444 1 4.1499999999999998e-01 5.1400219494765631e+00 5.9799151110395288e+00 2.6545172881192038e+01 -2 3 0
3156 444 1 4.1499999999999998e-01 8.9993236951294708e+00 5.5417615800064448e+00 2.7707039417850130e+01 2 7 0
171 444 1 4.1499999999999998e-01 9.2836856591325834e+00 9.0593951032384390e-01 3.1988858147708282e+01 1 1 0
3155 444 1 4.1499999999999998e-01 9.8047867088321112e+00 6.4618610143045263e+00 2.8599531210404358e+01 2 7 0
4153 444 2 -8.2999999999999996e-01 1.0555775313759758e+01 6.4996835872002947e+00 3.0133565828806674e+01 2 0 0
3067 444 2 -8.2999999999999996e-01 4.5802528004455940e+00 6.3183433485416529e+00 2.7243998123104852e+01 -2 3 0
2838 444 1 4.1499999999999998e-01 6.3676633190699539e+00 6.2733588809990293e+00 3.0288086732503817e+01 -1 1 0
3229 444 2 -8.2999999999999996e-01 6.1735113971324234e+00 1.0457692252488562e+00 2.5045153035561889e+01 0 1 0
2837 444 1 4.1499999999999998e-01 5.3619753485921064e+00 5.2745593024622108e+00 3.0819957751052375e+01 -1 1 0
5712 444 1 4.1499999999999998e-01 2.1403201608251559e+00 9.4925551011764431e-01 2.9780114025234067e+01 -3 -1 0
5092 444 2 -8.2999999999999996e-01 8.1153286011251939e+00 2.0009487705722075e+00 3.1152977301481208e+01 0 1 0
5710 444 2 -8.2999999999999996e-01 2.1824167414854716e+00 1.0978921849489833e+00 3.0724765771044002e+01 -3 -1 0
4206 444 1 4.1499999999999998e-01 9.3965794126184861e+00 5.1545107391964802e+00 3.0486048035699493e+01 3 -1 0
4204 444 2 -8.2999999999999996e-01 8.8568773491886787e+00 4.6377897382430451e+00 3.1084340589732946e+01 3 -1 0
5266 444 2 -8.2999999999999996e-01 3.2372032771749586e+00 6.6148029011427782e+00 2.4817028180454901e+01 1 -2 0
2606 444 1 4.1499999999999998e-01 8.5414092061057956e-01 3.5844675777449247e-01 2.7599639804179610e+01 0 -2 0
3683 444 1 4.1499999999999998e-01 1.1384675510641950e+01 3.7989184247724420e-02 3.1425654481254529e+01 -2 1 0
2463 444 1 4.1499999999999998e-01 5.8857178288504288e+00 4.5418750161615931e+00 2.4763826761007088e+01 1 -2 0
3607 444 2 -8.2999999999999996e-01 4.4816913648999703e+00 2.2555473612286678e+00 3.1164259847515002e+01 -7 -4 0
5267 444 1 4.1499999999999998e-01 3.4577570593452953e+00 6.2953456179889100e+00 2.5691976797214256e+01 1 -2 0
3608 444 1 4.1499999999999998e-01 5.0253473172400698e+00 2.6925375335891841e+00 3.0508737042434678e+01 -7 -4 0
46 444 2 -8.2999999999999996e-01 1.3833010811499211e-02 6.8094684181002290e+00 2.5558720253637961e+01 4 -3 0
1080 444 1 4.1499999999999998e-01 7.0076085234088143e+00 3.2148571803156654e+00 2.9060830111527316e+01 -2 1 0
1078 444 2 -8.2999999999999996e-01 6.1824517295475570e+00 3.6809559370825418e+00 2.9195369726939379e+01 -2 1 0
5094 444 1 4.1499999999999998e-01 7.3042572065697806e+00 1.4958309459641619e+00 3.1095945012357880e+01 0 1 0
1079 444 1 4.1499999999999998e-01 5.9501532495320966e+00 4.0128809835750490e+00 2.8328135348390099e+01 -2 1 0
2462 444 1 4.1499999999999998e-01 6.4195830077269722e+00 5.8884896031572316e+00 2.5203727228659890e+01 1 -2 0
2461 444 2 -8.2999999999999996e-01 6.0852014892565363e+00 5.0587962566658753e+00 2.5544359357401341e+01 1 -2 0
951 444 1 4.1499999999999998e-01 2.8675721072033382e+00 1.3978378600762182e+00 2.7409573066558405e+01 3 -2 0
4953 444 1 4.1499999999999998e-01 9.0572104875890744e+00 4.7669139484558798e+00 2.5310835055003839e+01 1 -2 0
949 444 2 -8.2999999999999996e-01 2.4428365319810021e+00 1.7544085098967601e+00 2.8189758461892293e+01 3 -2 0
1850 444 1 4.1499999999999998e-01 2.2603745349454853e+00 4.5680948628393034e+00 2.7842872321496923e+01 0 3 0
1849 444 2 -8.2999999999999996e-01 2.7145099755519722e+00 4.9856255468193762e+00 2.8574761594167988e+01 0 3 0
2677 444 2 -8.2999999999999996e-01 1.1005895392373562e+01 2.5168478410088961e+00 3.0237810324841764e+01 0 0 0
1851 444 1 4.1499999999999998e-01 3.5127016782595710e+00 5.3455573825103029e+00 2.8188016079954252e+01 0 3 0
3068 444 1 4.1499999999999998e-01 5.1900832360581317e+00 6.6913229235604756e+00 2.7880570948791924e+01 -2 3 0
5410 444 2 -8.2999999999999996e-01 6.5839441252047202e+00 7.1907234925704149e+00 2.8738520792578136e+01 -1 0 0
1680 444 1 4.1499999999999998e-01 9.0768079422176182e+00 1.6659674308545160e+00 2.7994843144549716e+01 -3 3 0
3609 444 1 4.1499999999999998e-01 4.7476774535997031e+00 2.6470310473609304e+00 3.1996259960024343e+01 -7 -4 0
4539 444 1 4.1499999999999998e-01 5.7936413088511984e-01 6.2376907570308262e+00 3.2477332313147649e+01 -3 0 0
3195 444 1 4.1499999999999998e-01 1.4706809242749121e+00 3.5678532379685137e+00 2.5381850295184417e+01 1 -2 0
3193 444 2 -8.2999999999999996e-01 1.6054312499355203e+00 3.9718882229596173e+00 2.6239072761621436e+01 1 -2 0
3194 444 1 4.1499999999999998e-01 1.2212300645209859e+00 4.8446618487371627e+00 2.6156078562755113e+01 1 -2 0
1678 444 2 -8.2999999999999996e-01 8.4645265971549595e+00 2.3902539708997042e+00 2.7865411340967615e+01 -3 3 0
1679 444 1 4.1499999999999998e-01 8.9333481680582985e+00 3.0023715572093335e+00 2.7298180691198898e+01 -3 3 0
874 444 2 -8.2999999999999996e-01 2.0183029639505783e+00 4.9647813764895288e+00 3.1283651676932610e+01 -6 4 0
875 444 1 4.1499999999999998e-01 2.4828868373053274e+00 4.8149906928607074e+00 3.0460270572734796e+01 -6 4 0
4952 444 1 4.1499999999999998e-01 8.8284209273485317e+00 3.2721564680243538e+00 2.5383296425835695e+01 1 -2 0
4951 444 2 -8.2999999999999996e-01 9.4230305781007822e+00 3.9620632155932065e+00 2.5677744920081523e+01 1 -2 0
5711 444 1 4.1499999999999998e-01 3.0852742376642266e+00 1.3728130490836541e+00 3.0884449123465277e+01 -3 -1 0
780 444 1 4.1499999999999998e-01 6.8843915241442506e+00 6.1861215363278212e+00 3.2188026967396993e+01 3 -1 0
4154 444 1 4.1499999999999998e-01 1.0284620195520683e+01 7.2125110897870979e+00 3.0711998862287690e+01 2 0 0
5093 444 1 4.1499999999999998e-01 7.8607930083232365e+00 2.8916496289849589e+00 3.0911946736684570e+01 0 1 0
3154 444 2 -8.2999999999999996e-01 9.2088800787271694e+00 6.4646650060044957e+00 2.7850452226870914e+01 2 7 0
2836 444 2 -8.2999999999999996e-01 5.7934970247801596e+00 6.1016091448464485e+00 3.1034456835276888e+01 -1 1 0
2678 444 1 4.1499999999999998e-01 1.0180080650340244e+01 2.8493281306714051e+00 3.0589548563178870e+01 0 0 0