LAMMPS data file via write_data, version 11 Aug 2017, timestep = 500000

7196 atoms
4 atom types
4000 bonds
1 bond types
2000 angles
1 angle types

0.0000000000000000e+00 4.5679949999999998e+01 xlo xhi
0.0000000000000000e+00 4.6885919999999999e+01 ylo yhi
0.0000000000000000e+00 6.5000000000000000e+01 zlo zhi

Masses

1 1.0079
2 15.9994
3 22.9898
4 107.868

Bond Coeffs # harmonic

1 450 0.9572

Angle Coeffs # harmonic

1 55 104.52

Atoms # full

6045 444 4 0.0000000000000000e+00 1.6907200000000000e+00 0.0000000000000000e+00 0.0000000000000000e+00 0 0 0
6046 444 4 0.0000000000000000e+00 4.2285000000000004e+00 1.4651900000000000e+00 0.0000000000000000e+00 0 0 0
6047 444 4 -1.5278000000000000e-01 1.6907700000000001e+00 0.0000000000000000e+00 7.1781499999999996e+00 0 0 0
6048 444 4 -1.5278000000000000e-01 4.2285500000000003e+00 1.4651900000000000e+00 7.1781499999999996e+00 0 0 0
6049 444 4 0.0000000000000000e+00 2.5366499999999998e+00 1.4651900000000000e+00 2.3926400000000001e+00 0 0 0
6050 444 4 0.0000000000000000e+00 5.0744199999999999e+00 0.0000000000000000e+00 2.3926400000000001e+00 0 0 0
6051 444 4 0.0000000000000000e+00 8.4509000000000001e-01 1.4651900000000000e+00 4.7824200000000001e+00 0 0 0
6052 444 4 0.0000000000000000e+00 3.3828600000000000e+00 0.0000000000000000e+00 4.7824499999999999e+00 0 0 0
6053 444 4 0.0000000000000000e+00 1.6907200000000000e+00 2.9303699999999999e+00 0.0000000000000000e+00 0 0 0
6054 444 4 0.0000000000000000e+00 4.2285000000000004e+00 4.3955599999999997e+00 0.0000000000000000e+00 0 0 0
6055 444 4 -1.5278000000000000e-01 1.6907700000000001e+00 2.9303699999999999e+00 7.1781899999999998e+00 0 0 0
6056 444 4 -1.5278000000000000e-01 4.2285500000000003e+00 4.3955599999999997e+00 7.1781600000000001e+00 0 0 0
6057 444 4 0.0000000000000000e+00 2.5366499999999998e+00 4.3955599999999997e+00 2.3926400000000001e+00 0 0 0
6058 444 4 0.0000000000000000e+00 5.0744199999999999e+00 2.9303699999999999e+00 2.3926400000000001e+00 0 0 0
6059 444 4 0.0000000000000000e+00 8.4509000000000001e-01 4.3955599999999997e+00 4.7824499999999999e+00 0 0 0
6060 444 4 0.0000000000000000e+00 3.3828700000000000e+00 2.9303699999999999e+00 4.7824400000000002e+00 0 0 0
2195 444 1 4.1499999999999998e-01 3.1129019129390003e+00 8.1942667541796954e-01 1.2369424619550934e+01 0 2 0
5776 444 2 -8.2999999999999996e-01 2.7002067554975908e+00 5.3529227443370275e-01 1.0199888071333257e+01 0 -1 0
5778 444 1 4.1499999999999998e-01 2.4056973263259160e+00 6.7714936324222286e-01 9.3002360863193196e+00 0 -1 0
5711 444 1 4.1499999999999998e-01 2.5180569074239370e+00 5.8392711905798196e+00 1.3010490722848342e+01 0 2 0
2194 444 2 -8.2999999999999996e-01 3.0106530308356669e+00 1.7191584745547734e+00 1.2679683764610557e+01 0 2 0
2196 444 1 4.1499999999999998e-01 2.1548377487390682e+00 1.9914209524181543e+00 1.2348495557528835e+01 0 2 0
4807 444 2 -8.2999999999999996e-01 2.2748408718831188e+00 4.4072368827503574e+00 1.0096115875919519e+01 -1 1 0
4808 444 1 4.1499999999999998e-01 1.7485454506009923e+00 3.6136366126780968e+00 1.0193300275308880e+01 -1 1 0
4349 444 1 4.1499999999999998e-01 3.5651868301272978e+00 1.3228280158455095e+00 1.4489386834300122e+01 0 2 0
946 444 2 -8.2999999999999996e-01 7.8622988703384883e-02 3.6178770127865771e+00 1.5020030436723786e+01 0 1 0
4348 444 2 -8.2999999999999996e-01 3.5283094432999116e+00 1.3496267777478768e+00 1.5445501360401202e+01 0 2 0
4350 444 1 4.1499999999999998e-01 3.0143451730966193e+00 5.7924022495572791e-01 1.5687529770953187e+01 0 2 0
3690 444 1 4.1499999999999998e-01 4.3429372396031765e+00 1.3750716129747955e+00 9.9069541867318716e+00 1 -1 0
2131 444 2 -8.2999999999999996e-01 2.1690768541644850e-01 4.0087473770233846e+00 1.2496859547581428e+01 2 2 0
5301 444 1 4.1499999999999998e-01 5.1386748668459390e+00 1.6033540504670933e+00 1.5851514493026979e+01 1 1 0
1469 444 1 4.1499999999999998e-01 5.1611558226114038e+00 5.4117041666433865e+00 1.5841700978613115e+01 0 1 0
4809 444 1 4.1499999999999998e-01 2.3086109830253321e+00 4.5586308850671493e+00 9.1515671515841603e+00 -1 1 0
2133 444 1 4.1499999999999998e-01 1.1116798434976061e+00 4.2801612579505210e+00 1.2292041717005317e+01 2 2 0
6029 444 3 1.0000000000000000e+00 4.2599911935998396e+00 3.6196539409741031e+00 1.1469918123362005e+01 0 1 0
948 444 1 4.1499999999999998e-01 1.9174207617794123e-01 3.8709079063661140e+00 1.4103836182903997e+01 0 1 0
3689 444 1 4.1499999999999998e-01 5.0734727006743672e+00 2.3578181109993359e+00 9.0167727322149673e+00 1 -1 0
3688 444 2 -8.2999999999999996e-01 5.0605710119829395e+00 2.0085015990713364e+00 9.9078643599720451e+00 1 -1 0
1470 444 1 4.1499999999999998e-01 5.4268538463018485e+00 4.9215052744160177e+00 1.4434219188997687e+01 0 1 0
4876 444 2 -8.2999999999999996e-01 5.2618232217685046e+00 5.4246291269100926e+00 1.0159081730276464e+01 2 1 0
1205 444 1 4.1499999999999998e-01 3.5873871460050331e+00 4.3019479102146079e+00 1.6113707708490086e+01 1 0 0
881 444 1 4.1499999999999998e-01 8.4020229374887262e-02 2.8589946117162430e+00 8.9906469411524288e+00 0 -1 0
1468 444 2 -8.2999999999999996e-01 4.7783672934733152e+00 4.8884394663343649e+00 1.5137500092852544e+01 0 1 0
5710 444 2 -8.2999999999999996e-01 2.8592527402239498e+00 4.9474502810561338e+00 1.2943602009220834e+01 0 2 0
4877 444 1 4.1499999999999998e-01 4.7894252878741037e+00 5.3558425036517052e+00 9.3294184732080971e+00 2 1 0
5712 444 1 4.1499999999999998e-01 3.4007900461469784e+00 4.8384229671055330e+00 1.3725320011118713e+01 0 2 0
5707 444 2 -8.2999999999999996e-01 5.6271110819408889e+00 4.1496419385760802e-01 1.3185363292217275e+01 1 0 0
134 444 1 4.1499999999999998e-01 4.6738104269342680e+00 4.2106184734540791e-01 2.2832150620815760e+01 3 0 0
1543 444 2 -8.2999999999999996e-01 4.2681246594531791e-01 2.4726644767051181e-01 1.6960638861970086e+01 1 -1 0
1629 444 1 4.1499999999999998e-01 4.5732775570436743e+00 3.4702050272217551e+00 1.9334863885791524e+01 -1 0 0
1628 444 1 4.1499999999999998e-01 3.5509138271091203e+00 4.1632192052480645e+00 1.8459421665239912e+01 -1 0 0
3063 444 1 4.1499999999999998e-01 3.5730852225329404e+00 2.5120822331535413e+00 2.3597749935217280e+01 2 0 0
1204 444 2 -8.2999999999999996e-01 2.9645224526273259e+00 3.8905361442008171e+00 1.6712884559239136e+01 1 0 0
1422 444 1 4.1499999999999998e-01 1.1804659120641259e+00 8.3288109321402071e-01 1.8267332388700410e+01 1 1 0
5883 444 1 4.1499999999999998e-01 5.1904470016414272e-01 3.8569779653774190e+00 1.9821093505045990e+01 -1 0 0
3135 444 1 4.1499999999999998e-01 1.6314586977847132e+00 4.9885620768224079e+00 2.1601234393643526e+01 0 1 0
4659 444 1 4.1499999999999998e-01 1.1496459385946554e+00 1.3592204037375721e+00 2.1090213126329928e+01 -1 0 0
3061 444 2 -8.2999999999999996e-01 3.7440473888989314e+00 2.0876464863620190e+00 2.2757000582155584e+01 2 0 0
1206 444 1 4.1499999999999998e-01 2.8285193234884765e+00 3.0140314766572178e+00 1.6353057489150405e+01 1 0 0
1421 444 1 4.1499999999999998e-01 2.3570756923761005e+00 6.0488469566339842e-01 1.9192266087388870e+01 1 1 0
3134 444 1 4.1499999999999998e-01 1.2281699035363902e+00 3.5563267579862163e+00 2.1880442931199816e+01 0 1 0
3133 444 2 -8.2999999999999996e-01 9.7131646537410432e-01 4.3313764724519599e+00 2.1380886524201198e+01 0 1 0
4658 444 1 4.1499999999999998e-01 3.0856617540199621e-02 1.5254346410005695e+00 2.2096482936433475e+01 -1 0 0
1627 444 2 -8.2999999999999996e-01 4.0008913073311279e+00 4.2366665817945295e+00 1.9301061534635469e+01 -1 0 0
5881 444 2 -8.2999999999999996e-01 2.4663309964751409e-01 3.3901479451035534e+00 1.9031097227253770e+01 -1 0 0
5882 444 1 4.1499999999999998e-01 7.0463373304426991e-01 2.5509573783481740e+00 1.9078285837013386e+01 -1 0 0
4657 444 2 -8.2999999999999996e-01 9.8461601887288153e-01 1.5368451874144837e+00 2.2016197255095395e+01 -1 0 0
1725 444 1 4.1499999999999998e-01 4.7572444843349917e+00 1.2607410885997836e+00 1.9170794076628752e+01 0 1 0
3062 444 1 4.1499999999999998e-01 2.8777521828641190e+00 1.8447917622775547e+00 2.2430217896485455e+01 2 0 0
1420 444 2 -8.2999999999999996e-01 1.6069387339882750e+00 1.1821612686139964e+00 1.9049864301992891e+01 1 1 0
2667 444 1 4.1499999999999998e-01 3.9609421473585651e+00 4.3837957237526677e+00 2.3993743917930878e+01 0 0 0
2665 444 2 -8.2999999999999996e-01 4.6971552231882194e+00 4.8665981444675941e+00 2.3618079134272207e+01 0 0 0
4604 444 1 4.1499999999999998e-01 3.8199078871934886e+00 5.4480756662791343e+00 2.0840023325626905e+01 1 0 0
6033 444 3 1.0000000000000000e+00 7.8978605122720913e-01 4.9921914313426710e+00 1.6985792046963283e+01 0 0 0
4605 444 1 4.1499999999999998e-01 3.9126570175754978e+00 5.5646478744785401e+00 2.2346577044334026e+01 1 0 0
744 444 1 4.1499999999999998e-01 5.6076252356603264e+00 1.9383738022951087e+00 2.2962157759366981e+01 -1 -1 0
2666 444 1 4.1499999999999998e-01 4.7534480402762336e+00 5.6650220478530873e+00 2.4143038506333578e+01 0 0 0
1723 444 2 -8.2999999999999996e-01 5.2663178354271976e+00 1.9992655533935400e+00 1.8836641680006480e+01 0 1 0
4603 444 2 -8.2999999999999996e-01 3.3425141881916769e+00 5.7686253368728808e+00 2.1605252088319268e+01 1 0 0
743 444 1 4.1499999999999998e-01 5.6673056615219553e+00 3.4246419171632914e+00 2.3243832965075310e+01 -1 -1 0
2421 444 1 4.1499999999999998e-01 2.1561642968942900e+00 5.8008282892145635e+00 1.9671001500643666e+01 0 0 0
1886 444 1 4.1499999999999998e-01 4.3582972951601334e-01 3.6437637045717008e+00 2.6436396872620783e+01 1 0 0
1885 444 2 -8.2999999999999996e-01 1.0068877212816718e+00 2.9822145126917734e+00 2.6826880345015269e+01 1 0 0
1887 444 1 4.1499999999999998e-01 4.0646462130055344e-01 2.3464071167937939e+00 2.7216075610731483e+01 1 0 0
2295 444 1 4.1499999999999998e-01 2.2684278303376990e+00 2.7761593835939937e+00 2.8042413310417864e+01 0 0 0
3237 444 1 4.1499999999999998e-01 2.3097835144171466e+00 3.0857543075329321e+00 2.5730940034941362e+01 1 -1 0
3236 444 1 4.1499999999999998e-01 3.6278044309197472e+00 2.4368071209450646e+00 2.5365449028401120e+01 1 -1 0
5871 444 1 4.1499999999999998e-01 2.4146173275264244e+00 5.2257428315161567e+00 2.7798756303929483e+01 -1 0 0
3235 444 2 -8.2999999999999996e-01 3.0582880599540161e+00 3.1725727357232683e+00 2.5140655872325603e+01 1 -1 0
762 444 1 4.1499999999999998e-01 5.2123421112545874e+00 5.4535124076720454e-01 2.5445031540485139e+01 2 0 0
760 444 2 -8.2999999999999996e-01 4.8234577448991969e+00 1.3699848001607253e+00 2.5736546364813410e+01 2 0 0
1855 444 2 -8.2999999999999996e-01 5.5912738182751047e+00 2.1746885803666198e+00 2.8441265650348868e+01 -2 3 0
1856 444 1 4.1499999999999998e-01 4.6546198846943012e+00 2.3553589165807440e+00 2.8520446357217931e+01 -2 3 0
1613 444 1 4.1499999999999998e-01 4.4138150934843562e-01 3.1564900825508304e+00 3.0751589693836237e+01 1 0 0
1612 444 2 -8.2999999999999996e-01 1.3001617871359947e+00 3.5765679888930264e+00 3.0704019662765230e+01 1 0 0
761 444 1 4.1499999999999998e-01 5.0030746038097753e+00 1.4010701885846379e+00 2.6676229153045607e+01 2 0 0
2293 444 2 -8.2999999999999996e-01 2.9915311169357572e+00 2.9875657128885407e+00 2.8632889375719138e+01 0 0 0
2294 444 1 4.1499999999999998e-01 2.5687949849401210e+00 3.3636098632914915e+00 2.9404976013511707e+01 0 0 0
1934 444 1 4.1499999999999998e-01 3.8658134841032166e-01 5.0541427950239441e+00 3.1039971387512239e+01 1 0 0
928 444 2 -8.2999999999999996e-01 3.1463210263580046e+00 2.0700622152740529e+00 3.2160057439714109e+01 0 1 0
1614 444 1 4.1499999999999998e-01 1.8747724520134728e+00 3.0065830222835022e+00 3.1215069815950496e+01 1 0 0
930 444 1 4.1499999999999998e-01 4.0845418123147654e+00 2.0883372928137800e+00 3.2348844893622172e+01 0 1 0
3350 444 1 4.1499999999999998e-01 1.0311231367635421e+00 2.0368226235545277e-02 2.7308708973426139e+01 1 2 0
2001 444 1 4.1499999999999998e-01 3.0022150907680056e-01 3.2695000192028782e+00 3.4268109759832647e+01 0 0 0
2887 444 2 -8.2999999999999996e-01 3.7945141524150912e+00 1.6060155931816704e+00 3.7447593356204990e+01 2 0 0
765 444 1 4.1499999999999998e-01 3.0253171631732716e+00 3.4680189326305549e-01 3.6583712288412784e+01 1 0 0
2608 444 2 -8.2999999999999996e-01 5.6832571147517879e+00 2.4917610926417710e+00 3.2864182293174437e+01 1 1 0
2888 444 1 4.1499999999999998e-01 3.7397919632237491e+00 2.5568128755069348e+00 3.7351558216305769e+01 2 0 0
5013 444 1 4.1499999999999998e-01 2.1986532789446582e+00 4.4378305457400176e+00 3.5021048877988058e+01 1 1 0
2889 444 1 4.1499999999999998e-01 3.8548973211029711e+00 1.4632941669540784e+00 3.8392165438062186e+01 2 0 0
4480 444 2 -8.2999999999999996e-01 1.3860099323721311e+00 1.1961168899596759e-01 3.3629225215947358e+01 1 -1 0
5011 444 2 -8.2999999999999996e-01 1.7589297574954517e+00 3.7310105980444779e+00 3.4548521287957179e+01 1 1 0
5012 444 1 4.1499999999999998e-01 2.4527627970751023e+00 3.3180554114042922e+00 3.4034423798466293e+01 1 1 0
2523 444 1 4.1499999999999998e-01 3.5070310007816214e+00 4.9633997153828577e+00 3.6500363359687768e+01 1 0 0
2522 444 1 4.1499999999999998e-01 2.3981898046584056e+00 4.8154235938617020e+00 3.7520398016774720e+01 1 0 0
2521 444 2 -8.2999999999999996e-01 3.1714666687553255e+00 4.3708615805687634e+00 3.7173065335230142e+01 1 0 0
929 444 1 4.1499999999999998e-01 2.7822837578912747e+00 1.4695921430575096e+00 3.2810553146560601e+01 0 1 0
4538 444 1 4.1499999999999998e-01 3.8114046589116106e+00 5.7651434603087175e+00 3.4195621458696294e+01 1 1 0
4537 444 2 -8.2999999999999996e-01 3.2125209435054018e+00 5.8481670102571801e+00 3.4937698236930586e+01 1 1 0
4481 444 1 4.1499999999999998e-01 1.8146884443348812e+00 1.3996347684190469e-01 3.4484825822083771e+01 1 -1 0
6061 444 4 0.0000000000000000e+00 1.6907200000000000e+00 5.8607399999999998e+00 0.0000000000000000e+00 0 0 0
6062 444 4 0.0000000000000000e+00 4.2285000000000004e+00 7.3259299999999996e+00 0.0000000000000000e+00 0 0 0
6063 444 4 -1.5278000000000000e-01 1.6907700000000001e+00 5.8607399999999998e+00 7.1781499999999996e+00 0 0 0
6064 444 4 -1.5278000000000000e-01 4.2285500000000003e+00 7.3259299999999996e+00 7.1781499999999996e+00 0 0 0
6065 444 4 0.0000000000000000e+00 2.5366499999999998e+00 7.3259299999999996e+00 2.3926400000000001e+00 0 0 0
6066 444 4 0.0000000000000000e+00 5.0744199999999999e+00 5.8607399999999998e+00 2.3926400000000001e+00 0 0 0
6067 444 4 0.0000000000000000e+00 8.4509000000000001e-01 7.3259299999999996e+00 4.7824200000000001e+00 0 0 0
6068 444 4 0.0000000000000000e+00 3.3828600000000000e+00 5.8607399999999998e+00 4.7824499999999999e+00 0 0 0
6069 444 4 0.0000000000000000e+00 1.6907200000000000e+00 8.7911099999999998e+00 0.0000000000000000e+00 0 0 0
6070 444 4 0.0000000000000000e+00 4.2285000000000004e+00 1.0256300000000000e+01 0.0000000000000000e+00 0 0 0
6071 444 4 -1.5278000000000000e-01 1.6907700000000001e+00 8.7911099999999998e+00 7.1781899999999998e+00 0 0 0
6072 444 4 -1.5278000000000000e-01 4.2285500000000003e+00 1.0256300000000000e+01 7.1781600000000001e+00 0 0 0
6073 444 4 0.0000000000000000e+00 2.5366499999999998e+00 1.0256300000000000e+01 2.3926400000000001e+00 0 0 0
6074 444 4 0.0000000000000000e+00 5.0744199999999999e+00 8.7911099999999998e+00 2.3926400000000001e+00 0 0 0
6075 444 4 0.0000000000000000e+00 8.4509000000000001e-01 1.0256300000000000e+01 4.7824499999999999e+00 0 0 0
6076 444 4 0.0000000000000000e+00 3.3828700000000000e+00 8.7911099999999998e+00 4.7824400000000002e+00 0 0 0
2755 444 2 -8.2999999999999996e-01 1.6185951422414806e+00 9.9292321007891271e+00 1.3526564904843513e+01 1 1 0
995 444 1 4.1499999999999998e-01 2.3226831586296339e+00 8.3870812967445207e+00 1.3015275362532646e+01 0 1 0
994 444 2 -8.2999999999999996e-01 2.1879661241554493e+00 7.5029852641667567e+00 1.2674014524398478e+01 0 1 0
996 444 1 4.1499999999999998e-01 2.7651772824396015e+00 7.4492117509839195e+00 1.1912326527888791e+01 0 1 0
2411 444 1 4.1499999999999998e-01 5.5007020058967171e-01 9.3792248535623841e+00 9.7669572627037908e+00 0 0 0
2410 444 2 -8.2999999999999996e-01 5.5762538598260225e-01 9.7042705961263902e+00 1.0667246382206155e+01 0 0 0
4377 444 1 4.1499999999999998e-01 4.3919168676641247e+00 1.1114342370605602e+01 1.5960015043461263e+01 -1 -1 0
4376 444 1 4.1499999999999998e-01 4.0382112233162140e+00 9.6465652949787319e+00 1.5848576623144497e+01 -1 -1 0
4375 444 2 -8.2999999999999996e-01 3.7420187288202573e+00 1.0469081664004200e+01 1.6238408648410466e+01 -1 -1 0
3745 444 2 -8.2999999999999996e-01 1.3106570718576063e+00 7.0650472841295908e+00 1.0014413841628887e+01 1 1 0
4616 444 1 4.1499999999999998e-01 2.9700880518958046e+00 1.0724215017847703e+01 9.0654901468953817e+00 0 0 0
2757 444 1 4.1499999999999998e-01 1.4953964025638544e+00 9.6536804062023052e+00 1.4434929436436160e+01 1 1 0
4668 444 1 4.1499999999999998e-01 5.4371260263225434e+00 1.0933025546530674e+01 1.3840136603075541e+01 0 0 0
4927 444 2 -8.2999999999999996e-01 4.2456627027532807e+00 8.2038840350153652e+00 1.0414381410486858e+01 0 0 0
3746 444 1 4.1499999999999998e-01 1.1875806712787893e+00 7.2772656406412004e+00 9.0891851543744782e+00 1 1 0
2476 444 2 -8.2999999999999996e-01 4.9103000314696876e+00 8.3238825342299538e+00 1.5309195140892269e+01 -1 1 0
4928 444 1 4.1499999999999998e-01 4.6684494479801746e+00 7.6145188901764076e+00 9.7897756102524749e+00 0 0 0
4615 444 2 -8.2999999999999996e-01 3.1283677963478724e+00 1.1017799928021178e+01 9.9627013740747543e+00 0 0 0
4929 444 1 4.1499999999999998e-01 4.0003265923335229e+00 8.9689982699046773e+00 9.8941472750691108e+00 0 0 0
3456 444 1 4.1499999999999998e-01 5.2209737847861009e+00 9.1293887470063861e+00 1.1583233707953076e+01 1 0 0
3797 444 1 4.1499999999999998e-01 2.6929518584513432e+00 6.7230797117198540e+00 1.5155412314777683e+01 0 -1 0
3796 444 2 -8.2999999999999996e-01 1.8919514857095443e+00 6.6961034531001005e+00 1.5678769505177362e+01 0 -1 0
2756 444 1 4.1499999999999998e-01 1.1275028578347241e+00 1.0747762609657102e+01 1.3455371401740447e+01 1 1 0
3798 444 1 4.1499999999999998e-01 1.6529209835725545e+00 7.6151173165175692e+00 1.5799229131789934e+01 0 -1 0
3454 444 2 -8.2999999999999996e-01 5.5277222615907640e+00 9.7920361668735048e+00 1.2202133229609078e+01 1 0 0
4210 444 2 -8.2999999999999996e-01 1.3845051543808580e+00 9.4686565455457146e+00 1.6208449435810394e+01 0 0 0
2412 444 1 4.1499999999999998e-01 1.4520216145994875e+00 1.0017629197102885e+01 1.0801761042642910e+01 0 0 0
2477 444 1 4.1499999999999998e-01 5.0573715574302502e+00 7.7447453916470357e+00 1.4561397020472857e+01 -1 1 0
3747 444 1 4.1499999999999998e-01 1.9088499071993976e+00 6.3177918538970870e+00 1.0011723082650104e+01 1 1 0
4617 444 1 4.1499999999999998e-01 4.0207541648302350e+00 1.1363728105197413e+01 9.9481107700577081e+00 0 0 0
2478 444 1 4.1499999999999998e-01 5.4628467919948474e+00 7.9645704713810437e+00 1.6003327007209862e+01 -1 1 0
3599 444 1 4.1499999999999998e-01 5.1742896609936802e+00 6.9636971958661809e+00 1.2290166156803206e+01 0 1 0
3598 444 2 -8.2999999999999996e-01 5.5516936309811680e+00 6.5533942045584386e+00 1.3068272835463382e+01 0 1 0
2579 444 1 4.1499999999999998e-01 5.2164747014877288e-01 1.1712992421497118e+01 9.9583521420701544e+00 2 1 0
797 444 1 4.1499999999999998e-01 5.0541410418139456e+00 6.9214650521473198e+00 1.7539040085556856e+01 1 0 0
1262 444 1 4.1499999999999998e-01 2.4556281887254832e+00 1.0941235255007738e+01 2.3406482882273917e+01 2 1 0
4211 444 1 4.1499999999999998e-01 2.1421007130324270e+00 1.0041493515573002e+01 1.6327361422440280e+01 0 0 0
4207 444 2 -8.2999999999999996e-01 1.2377590348118679e+00 9.3758435499556203e+00 2.0920559378836860e+01 0 2 0
813 444 1 4.1499999999999998e-01 8.3041072651760950e-01 1.0174153819235180e+01 1.9654172390335788e+01 0 1 0
2381 444 1 4.1499999999999998e-01 4.1295042646515370e+00 8.9967139952599151e+00 1.8669911244280861e+01 0 1 0
2420 444 1 4.1499999999999998e-01 2.3854628719737208e+00 6.9357065901238562e+00 1.8695620040387894e+01 0 0 0
2419 444 2 -8.2999999999999996e-01 1.8309811613476359e+00 6.1709541374084180e+00 1.8850334097746021e+01 0 0 0
2380 444 2 -8.2999999999999996e-01 3.5825465627864901e+00 8.3391487727972127e+00 1.8240169750394340e+01 0 1 0
2370 444 1 4.1499999999999998e-01 2.7896432098205390e+00 8.5769613655120747e+00 2.3055347205594078e+01 -1 0 0
2369 444 1 4.1499999999999998e-01 2.7879348916536744e+00 7.1488550563294737e+00 2.2552947526007301e+01 -1 0 0
2368 444 2 -8.2999999999999996e-01 2.4719054179043143e+00 7.6997089727150554e+00 2.3269130602730186e+01 -1 0 0
811 444 2 -8.2999999999999996e-01 5.3257693199987122e-01 1.0645161446955175e+01 1.8875918657435008e+01 0 1 0
4212 444 1 4.1499999999999998e-01 8.2096735529214770e-01 9.6571655239184686e+00 1.6958863964865309e+01 0 0 0
812 444 1 4.1499999999999998e-01 1.2928749169234095e+00 1.1156747230424287e+01 1.8599405791633860e+01 0 1 0
4209 444 1 4.1499999999999998e-01 1.7818340209028447e+00 9.9678300717236468e+00 2.1439949808422668e+01 0 2 0
2382 444 1 4.1499999999999998e-01 3.1969021809200049e+00 8.7982251322064613e+00 1.7494006695485830e+01 0 1 0
4217 444 1 4.1499999999999998e-01 5.6706653524164494e+00 1.0364576517248777e+01 2.4169412811776279e+01 2 2 0
4823 444 1 4.1499999999999998e-01 3.4123032050430711e+00 1.1403700980851285e+01 1.7455639894643284e+01 0 0 0
1261 444 2 -8.2999999999999996e-01 2.8982785459137581e+00 1.0430180216932687e+01 2.2728901940069715e+01 2 1 0
1263 444 1 4.1499999999999998e-01 3.8108584822724980e+00 1.0716017156104238e+01 2.2770461573711799e+01 2 1 0
4208 444 1 4.1499999999999998e-01 9.0684919061841185e-01 8.7375286326398083e+00 2.1552449571700407e+01 0 2 0
5795 444 1 4.1499999999999998e-01 5.6955817540676668e+00 9.4583416720369744e+00 2.1765680429053216e+01 1 0 0
2713 444 2 -8.2999999999999996e-01 2.6519150486441099e+00 1.1445909615070656e+01 3.1108492015557019e+01 -1 0 0
2715 444 1 4.1499999999999998e-01 3.4565928779609343e+00 1.1520192212753571e+01 3.0595454281530412e+01 -1 0 0
577 444 2 -8.2999999999999996e-01 4.6928672199584742e+00 7.3922455179915563e+00 2.4890164577387893e+01 1 1 0
5869 444 2 -8.2999999999999996e-01 2.1997888462437358e+00 6.1375494560219686e+00 2.7602059237880891e+01 -1 0 0
3013 444 2 -8.2999999999999996e-01 3.9280707665953778e+00 6.8434302769330255e+00 3.0385509940399430e+01 1 0 0
4075 444 2 -8.2999999999999996e-01 5.2991840923559135e+00 1.1424947574124175e+01 3.0106962702278498e+01 0 -1 0
1816 444 2 -8.2999999999999996e-01 2.6900554943283201e+00 1.1507309804612150e+01 2.5267132063411790e+01 -1 -1 0
5870 444 1 4.1499999999999998e-01 1.5623463051457622e+00 6.3838829819136746e+00 2.8272297179690309e+01 -1 0 0
4214 444 1 4.1499999999999998e-01 5.5648527448013176e+00 7.8549381679353196e+00 3.0899221606274406e+01 -2 -1 0
951 444 1 4.1499999999999998e-01 2.5355696896993479e-01 1.0776578899373339e+01 2.7234795166938738e+01 0 1 0
5747 444 1 4.1499999999999998e-01 9.9365372042819056e-01 7.6074847040802824e+00 2.5045532347051331e+01 2 0 0
579 444 1 4.1499999999999998e-01 4.6433787455595121e+00 8.0108584542868417e+00 2.5618931316902408e+01 1 1 0
1817 444 1 4.1499999999999998e-01 2.9709271544422498e+00 1.0830547944192061e+01 2.5883036059679959e+01 -1 -1 0
4780 444 2 -8.2999999999999996e-01 4.3928762875007763e+00 7.4948422021240884e+00 2.7771586987763133e+01 0 2 0
4781 444 1 4.1499999999999998e-01 3.9346379754022895e+00 6.6982683096360311e+00 2.7503781674445317e+01 0 2 0
3014 444 1 4.1499999999999998e-01 3.7286405733042387e+00 5.9951269624070074e+00 3.0781541589825835e+01 1 0 0
4782 444 1 4.1499999999999998e-01 4.3941260624930729e+00 7.4608984356268957e+00 2.8728184185706926e+01 0 2 0
5746 444 2 -8.2999999999999996e-01 4.8128292718860780e-02 7.4585252745746198e+00 2.5040549199984810e+01 2 0 0
3837 444 1 4.1499999999999998e-01 3.6846345175303012e+00 9.3642144138838574e+00 2.7247195156967248e+01 1 -1 0
949 444 2 -8.2999999999999996e-01 4.4514309688839665e-01 1.0103942084704398e+01 2.7888313946736950e+01 0 1 0
1408 444 2 -8.2999999999999996e-01 2.0994038586503661e-01 9.9683326111186812e+00 3.0923706901518660e+01 1 0 0
3597 444 1 4.1499999999999998e-01 7.7795942620516567e-01 7.0271213214261028e+00 3.0346449739160128e+01 0 1 0
1409 444 1 4.1499999999999998e-01 1.0732052223759632e+00 1.0363853921365639e+01 3.0803003318227475e+01 1 0 0
3596 444 1 4.1499999999999998e-01 9.9574633758674591e-01 8.5249475536331509e+00 3.0377785158653687e+01 0 1 0
3595 444 2 -8.2999999999999996e-01 1.4549031158563945e+00 7.6959282255739812e+00 3.0243121588429990e+01 0 1 0
3836 444 1 4.1499999999999998e-01 2.3924304668826690e+00 9.7881292578543100e+00 2.7912326985981903e+01 1 -1 0
3835 444 2 -8.2999999999999996e-01 3.1213790743802918e+00 1.0124643426361891e+01 2.7391150788723444e+01 1 -1 0
578 444 1 4.1499999999999998e-01 3.8554492068268078e+00 7.4882712266575400e+00 2.4436575359092746e+01 1 1 0
3015 444 1 4.1499999999999998e-01 3.1295216961113965e+00 7.3575845415294312e+00 3.0504662349445688e+01 1 0 0
1014 444 1 4.1499999999999998e-01 8.5034896318213438e-01 1.1614493797203501e+01 2.5698341328622689e+01 1 2 0
4216 444 2 -8.2999999999999996e-01 5.4978687693299602e+00 1.0810397174204741e+01 2.4998639750460899e+01 2 2 0
4077 444 1 4.1499999999999998e-01 5.4164682922207996e+00 1.0529692820132622e+01 3.0424761865170808e+01 0 -1 0
2714 444 1 4.1499999999999998e-01 2.9511473682641642e+00 1.1369233597329078e+01 3.2014479151741980e+01 -1 0 0
2570 444 1 4.1499999999999998e-01 1.6744873951656425e+00 9.0639068490270294e+00 3.2805671067780771e+01 -1 0 0
3452 444 1 4.1499999999999998e-01 1.4090572900478793e+00 1.1213882187383790e+01 3.5571508733391056e+01 1 1 0
3451 444 2 -8.2999999999999996e-01 6.8575678958794983e-01 1.0681585831649818e+01 3.5240254453869142e+01 1 1 0
5391 444 1 4.1499999999999998e-01 5.1906945916899837e-02 8.5918719584146181e+00 3.3941470969135302e+01 1 0 0
2569 444 2 -8.2999999999999996e-01 1.8713747235918485e+00 8.6977205240688935e+00 3.3667862953704301e+01 -1 0 0
4539 444 1 4.1499999999999998e-01 2.9532961422444322e+00 6.7695940154832668e+00 3.4934961847247351e+01 1 1 0
3453 444 1 4.1499999999999998e-01 1.0838522787883913e+00 9.8348982199841917e+00 3.5038085563093006e+01 1 1 0
2571 444 1 4.1499999999999998e-01 2.7702006121458824e+00 8.3772094856149941e+00 3.3592916154644044e+01 -1 0 0
2874 444 1 4.1499999999999998e-01 5.2465171772682684e+00 7.7064931999846618e+00 3.3611897318465701e+01 0 1 0
2872 444 2 -8.2999999999999996e-01 4.6268871770206399e+00 8.3569404147273101e+00 3.3942367291401766e+01 0 1 0
2873 444 1 4.1499999999999998e-01 5.1007232609909900e+00 9.1871033381521592e+00 3.3891957937018972e+01 0 1 0
6077 444 4 0.0000000000000000e+00 1.6907200000000000e+00 1.1721480000000000e+01 0.0000000000000000e+00 0 0 0
6078 444 4 0.0000000000000000e+00 4.2285000000000004e+00 1.3186669999999999e+01 0.0000000000000000e+00 0 0 0
6079 444 4 -1.5278000000000000e-01 1.6907700000000001e+00 1.1721480000000000e+01 7.1781499999999996e+00 0 0 0
6080 444 4 -1.5278000000000000e-01 4.2285500000000003e+00 1.3186669999999999e+01 7.1781499999999996e+00 0 0 0
6081 444 4 0.0000000000000000e+00 2.5366499999999998e+00 1.3186669999999999e+01 2.3926400000000001e+00 0 0 0
6082 444 4 0.0000000000000000e+00 5.0744199999999999e+00 1.1721480000000000e+01 2.3926400000000001e+00 0 0 0
6083 444 4 0.0000000000000000e+00 8.4509000000000001e-01 1.3186669999999999e+01 4.7824200000000001e+00 0 0 0
6084 444 4 0.0000000000000000e+00 3.3828600000000000e+00 1.1721480000000000e+01 4.7824499999999999e+00 0 0 0
6085 444 4 0.0000000000000000e+00 1.6907200000000000e+00 1.4651850000000000e+01 0.0000000000000000e+00 0 0 0
6087 444 4 -1.5278000000000000e-01 1.6907700000000001e+00 1.4651850000000000e+01 7.1781899999999998e+00 0 0 0
6090 444 4 0.0000000000000000e+00 5.0744199999999999e+00 1.4651850000000000e+01 2.3926400000000001e+00 0 0 0
6092 444 4 0.0000000000000000e+00 3.3828700000000000e+00 1.4651850000000000e+01 4.7824400000000002e+00 0 0 0
6086 444 4 0.0000000000000000e+00 4.2285000000000004e+00 1.6117039999999999e+01 0.0000000000000000e+00 0 0 0
6088 444 4 -1.5278000000000000e-01 4.2285500000000003e+00 1.6117039999999999e+01 7.1781600000000001e+00 0 0 0
6089 444 4 0.0000000000000000e+00 2.5366499999999998e+00 1.6117039999999999e+01 2.3926400000000001e+00 0 0 0
6091 444 4 0.0000000000000000e+00 8.4509000000000001e-01 1.6117039999999999e+01 4.7824499999999999e+00 0 0 0
1100 444 1 4.1499999999999998e-01 2.4101045040199827e+00 1.3178477708934222e+01 1.1651962543391896e+01 -1 1 0
6034 444 3 1.0000000000000000e+00 4.4806716349314728e+00 1.4067260003977955e+01 1.4191634081954943e+01 0 0 0
2578 444 2 -8.2999999999999996e-01 4.3044345512015952e-01 1.2665374510100159e+01 9.9880672937230059e+00 2 1 0
3289 444 2 -8.2999999999999996e-01 3.1296052938507652e+00 1.4900406710258759e+01 1.0105920539501934e+01 1 1 0
3291 444 1 4.1499999999999998e-01 2.2344019062523794e+00 1.5204991233857671e+01 9.9573540364622080e+00 1 1 0
3290 444 1 4.1499999999999998e-01 3.3436496461996783e+00 1.4393328020613012e+01 9.3227930417409226e+00 1 1 0
5047 444 2 -8.2999999999999996e-01 1.8001821553253936e+00 1.3414948495682543e+01 1.4837608906298366e+01 -2 0 0
5049 444 1 4.1499999999999998e-01 1.0684291412907811e+00 1.3939733819613551e+01 1.4513001799400502e+01 -2 0 0
5048 444 1 4.1499999999999998e-01 2.1877189885706869e+00 1.3031062277191324e+01 1.4051047649645392e+01 -2 0 0
2580 444 1 4.1499999999999998e-01 5.3215275282708918e-01 1.2944703862507708e+01 9.0781975833893647e+00 2 1 0
1551 444 1 4.1499999999999998e-01 6.7957403021047236e-01 1.5291120609403819e+01 1.2424908605129792e+01 1 1 0
5539 444 2 -8.2999999999999996e-01 6.3849281929841417e-01 1.5970530659446966e+01 1.0057478837362382e+01 -2 0 0
5540 444 1 4.1499999999999998e-01 8.6246105611549706e-01 1.5936606799087778e+01 9.1274683205507401e+00 -2 0 0
5828 444 1 4.1499999999999998e-01 5.3568671256030269e+00 1.4748577808504878e+01 1.1113670086240305e+01 0 -1 0
868 444 2 -8.2999999999999996e-01 5.7002467634048859e+00 1.2176894198421275e+01 9.8362504335154206e+00 0 0 0
1101 444 1 4.1499999999999998e-01 3.1251487746986184e+00 1.1938200610345982e+01 1.2144223049950430e+01 -1 1 0