LAMMPS data file via write_data, version 11 Aug 2017, timestep = 5000000

7158 atoms
4 atom types
4000 bonds
1 bond types
2000 angles
1 angle types

0.0000000000000000e+00 4.5679949999999998e+01 xlo xhi
0.0000000000000000e+00 4.6885919999999999e+01 ylo yhi
0.0000000000000000e+00 6.5000000000000000e+01 zlo zhi

Masses

1 1.0079
2 15.9994
3 18.9984
4 107.868

Bond Coeffs # harmonic

1 450 0.9572

Angle Coeffs # harmonic

1 55 104.52

Atoms # full

6007 444 4 0.0000000000000000e+00 1.6907200000000000e+00 0.0000000000000000e+00 0.0000000000000000e+00 0 0 0
6008 444 4 0.0000000000000000e+00 4.2285000000000004e+00 1.4651900000000000e+00 0.0000000000000000e+00 0 0 0
6009 444 4 2.0830000000000001e-02 1.6907700000000001e+00 0.0000000000000000e+00 7.1781499999999996e+00 0 0 0
6010 444 4 2.0830000000000001e-02 4.2285500000000003e+00 1.4651900000000000e+00 7.1781499999999996e+00 0 0 0
6011 444 4 0.0000000000000000e+00 2.5366499999999998e+00 1.4651900000000000e+00 2.3926400000000001e+00 0 0 0
6012 444 4 0.0000000000000000e+00 5.0744199999999999e+00 0.0000000000000000e+00 2.3926400000000001e+00 0 0 0
6013 444 4 0.0000000000000000e+00 8.4509000000000001e-01 1.4651900000000000e+00 4.7824200000000001e+00 0 0 0
6014 444 4 0.0000000000000000e+00 3.3828600000000000e+00 0.0000000000000000e+00 4.7824499999999999e+00 0 0 0
6015 444 4 0.0000000000000000e+00 1.6907200000000000e+00 2.9303699999999999e+00 0.0000000000000000e+00 0 0 0
6016 444 4 0.0000000000000000e+00 4.2285000000000004e+00 4.3955599999999997e+00 0.0000000000000000e+00 0 0 0
6017 444 4 2.0830000000000001e-02 1.6907700000000001e+00 2.9303699999999999e+00 7.1781899999999998e+00 0 0 0
6018 444 4 2.0830000000000001e-02 4.2285500000000003e+00 4.3955599999999997e+00 7.1781600000000001e+00 0 0 0
6019 444 4 0.0000000000000000e+00 2.5366499999999998e+00 4.3955599999999997e+00 2.3926400000000001e+00 0 0 0
6020 444 4 0.0000000000000000e+00 5.0744199999999999e+00 2.9303699999999999e+00 2.3926400000000001e+00 0 0 0
6021 444 4 0.0000000000000000e+00 8.4509000000000001e-01 4.3955599999999997e+00 4.7824499999999999e+00 0 0 0
6022 444 4 0.0000000000000000e+00 3.3828700000000000e+00 2.9303699999999999e+00 4.7824400000000002e+00 0 0 0
6023 444 4 0.0000000000000000e+00 1.6907200000000000e+00 5.8607399999999998e+00 0.0000000000000000e+00 0 0 0
6024 444 4 0.0000000000000000e+00 4.2285000000000004e+00 7.3259299999999996e+00 0.0000000000000000e+00 0 0 0
6025 444 4 2.0830000000000001e-02 1.6907700000000001e+00 5.8607399999999998e+00 7.1781499999999996e+00 0 0 0
6026 444 4 2.0830000000000001e-02 4.2285500000000003e+00 7.3259299999999996e+00 7.1781499999999996e+00 0 0 0
6027 444 4 0.0000000000000000e+00 2.5366499999999998e+00 7.3259299999999996e+00 2.3926400000000001e+00 0 0 0
6028 444 4 0.0000000000000000e+00 5.0744199999999999e+00 5.8607399999999998e+00 2.3926400000000001e+00 0 0 0
6029 444 4 0.0000000000000000e+00 8.4509000000000001e-01 7.3259299999999996e+00 4.7824200000000001e+00 0 0 0
6030 444 4 0.0000000000000000e+00 3.3828600000000000e+00 5.8607399999999998e+00 4.7824499999999999e+00 0 0 0
6135 444 4 0.0000000000000000e+00 6.7662699999999996e+00 0.0000000000000000e+00 0.0000000000000000e+00 0 0 0
6137 444 4 2.0830000000000001e-02 6.7663200000000003e+00 0.0000000000000000e+00 7.1781499999999996e+00 0 0 0
6139 444 4 0.0000000000000000e+00 7.6121999999999996e+00 1.4651900000000000e+00 2.3926400000000001e+00 0 0 0
6141 444 4 0.0000000000000000e+00 5.9206399999999997e+00 1.4651900000000000e+00 4.7824200000000001e+00 0 0 0
6143 444 4 0.0000000000000000e+00 6.7662699999999996e+00 2.9303699999999999e+00 0.0000000000000000e+00 0 0 0
6145 444 4 2.0830000000000001e-02 6.7663200000000003e+00 2.9303699999999999e+00 7.1781899999999998e+00 0 0 0
6147 444 4 0.0000000000000000e+00 7.6121999999999996e+00 4.3955599999999997e+00 2.3926400000000001e+00 0 0 0
6149 444 4 0.0000000000000000e+00 5.9206399999999997e+00 4.3955599999999997e+00 4.7824499999999999e+00 0 0 0
6151 444 4 0.0000000000000000e+00 6.7662699999999996e+00 5.8607399999999998e+00 0.0000000000000000e+00 0 0 0
6153 444 4 2.0830000000000001e-02 6.7663200000000003e+00 5.8607399999999998e+00 7.1781499999999996e+00 0 0 0
6155 444 4 0.0000000000000000e+00 7.6121999999999996e+00 7.3259299999999996e+00 2.3926400000000001e+00 0 0 0
6157 444 4 0.0000000000000000e+00 5.9206399999999997e+00 7.3259299999999996e+00 4.7824200000000001e+00 0 0 0
6031 444 4 0.0000000000000000e+00 1.6907200000000000e+00 8.7911099999999998e+00 0.0000000000000000e+00 0 0 0
6033 444 4 2.0830000000000001e-02 1.6907700000000001e+00 8.7911099999999998e+00 7.1781899999999998e+00 0 0 0
6036 444 4 0.0000000000000000e+00 5.0744199999999999e+00 8.7911099999999998e+00 2.3926400000000001e+00 0 0 0
6038 444 4 0.0000000000000000e+00 3.3828700000000000e+00 8.7911099999999998e+00 4.7824400000000002e+00 0 0 0
6159 444 4 0.0000000000000000e+00 6.7662699999999996e+00 8.7911099999999998e+00 0.0000000000000000e+00 0 0 0
6161 444 4 2.0830000000000001e-02 6.7663200000000003e+00 8.7911099999999998e+00 7.1781899999999998e+00 0 0 0
6032 444 4 0.0000000000000000e+00 4.2285000000000004e+00 1.0256300000000000e+01 0.0000000000000000e+00 0 0 0
6034 444 4 2.0830000000000001e-02 4.2285500000000003e+00 1.0256300000000000e+01 7.1781600000000001e+00 0 0 0
6035 444 4 0.0000000000000000e+00 2.5366499999999998e+00 1.0256300000000000e+01 2.3926400000000001e+00 0 0 0
6037 444 4 0.0000000000000000e+00 8.4509000000000001e-01 1.0256300000000000e+01 4.7824499999999999e+00 0 0 0
6163 444 4 0.0000000000000000e+00 7.6121999999999996e+00 1.0256300000000000e+01 2.3926400000000001e+00 0 0 0
6165 444 4 0.0000000000000000e+00 5.9206399999999997e+00 1.0256300000000000e+01 4.7824499999999999e+00 0 0 0
6136 444 4 0.0000000000000000e+00 9.3040500000000002e+00 1.4651900000000000e+00 0.0000000000000000e+00 0 0 0
6138 444 4 2.0830000000000001e-02 9.3041000000000000e+00 1.4651900000000000e+00 7.1781499999999996e+00 0 0 0
6140 444 4 0.0000000000000000e+00 1.0149970000000000e+01 0.0000000000000000e+00 2.3926400000000001e+00 0 0 0
6142 444 4 0.0000000000000000e+00 8.4584100000000007e+00 0.0000000000000000e+00 4.7824499999999999e+00 0 0 0
6144 444 4 0.0000000000000000e+00 9.3040500000000002e+00 4.3955599999999997e+00 0.0000000000000000e+00 0 0 0
6146 444 4 2.0830000000000001e-02 9.3041000000000000e+00 4.3955599999999997e+00 7.1781600000000001e+00 0 0 0
6148 444 4 0.0000000000000000e+00 1.0149970000000000e+01 2.9303699999999999e+00 2.3926400000000001e+00 0 0 0
6150 444 4 0.0000000000000000e+00 8.4584200000000003e+00 2.9303699999999999e+00 4.7824400000000002e+00 0 0 0
6152 444 4 0.0000000000000000e+00 9.3040500000000002e+00 7.3259299999999996e+00 0.0000000000000000e+00 0 0 0
6154 444 4 2.0830000000000001e-02 9.3041000000000000e+00 7.3259299999999996e+00 7.1781499999999996e+00 0 0 0
6156 444 4 0.0000000000000000e+00 1.0149970000000000e+01 5.8607399999999998e+00 2.3926400000000001e+00 0 0 0
6158 444 4 0.0000000000000000e+00 8.4584100000000007e+00 5.8607399999999998e+00 4.7824499999999999e+00 0 0 0
6269 444 4 0.0000000000000000e+00 1.0996190000000000e+01 1.4651900000000000e+00 4.7824200000000001e+00 0 0 0
6277 444 4 0.0000000000000000e+00 1.0996190000000000e+01 4.3955599999999997e+00 4.7824499999999999e+00 0 0 0
6285 444 4 0.0000000000000000e+00 1.0996190000000000e+01 7.3259299999999996e+00 4.7824200000000001e+00 0 0 0
6164 444 4 0.0000000000000000e+00 1.0149970000000000e+01 8.7911099999999998e+00 2.3926400000000001e+00 0 0 0
6166 444 4 0.0000000000000000e+00 8.4584200000000003e+00 8.7911099999999998e+00 4.7824400000000002e+00 0 0 0
6160 444 4 0.0000000000000000e+00 9.3040500000000002e+00 1.0256300000000000e+01 0.0000000000000000e+00 0 0 0
6162 444 4 2.0830000000000001e-02 9.3041000000000000e+00 1.0256300000000000e+01 7.1781600000000001e+00 0 0 0
6293 444 4 0.0000000000000000e+00 1.0996190000000000e+01 1.0256300000000000e+01 4.7824499999999999e+00 0 0 0
6263 444 4 0.0000000000000000e+00 1.1841820000000000e+01 0.0000000000000000e+00 0.0000000000000000e+00 0 0 0
6264 444 4 0.0000000000000000e+00 1.4379600000000000e+01 1.4651900000000000e+00 0.0000000000000000e+00 0 0 0
6265 444 4 2.0830000000000001e-02 1.1841870000000000e+01 0.0000000000000000e+00 7.1781499999999996e+00 0 0 0
6266 444 4 2.0830000000000001e-02 1.4379650000000000e+01 1.4651900000000000e+00 7.1781499999999996e+00 0 0 0
6267 444 4 0.0000000000000000e+00 1.2687749999999999e+01 1.4651900000000000e+00 2.3926400000000001e+00 0 0 0
6268 444 4 0.0000000000000000e+00 1.5225519999999999e+01 0.0000000000000000e+00 2.3926400000000001e+00 0 0 0
6270 444 4 0.0000000000000000e+00 1.3533960000000000e+01 0.0000000000000000e+00 4.7824499999999999e+00 0 0 0
6271 444 4 0.0000000000000000e+00 1.1841820000000000e+01 2.9303699999999999e+00 0.0000000000000000e+00 0 0 0
6272 444 4 0.0000000000000000e+00 1.4379600000000000e+01 4.3955599999999997e+00 0.0000000000000000e+00 0 0 0
6273 444 4 2.0830000000000001e-02 1.1841870000000000e+01 2.9303699999999999e+00 7.1781899999999998e+00 0 0 0
6274 444 4 2.0830000000000001e-02 1.4379650000000000e+01 4.3955599999999997e+00 7.1781600000000001e+00 0 0 0
6275 444 4 0.0000000000000000e+00 1.2687749999999999e+01 4.3955599999999997e+00 2.3926400000000001e+00 0 0 0
6276 444 4 0.0000000000000000e+00 1.5225519999999999e+01 2.9303699999999999e+00 2.3926400000000001e+00 0 0 0
6278 444 4 0.0000000000000000e+00 1.3533970000000000e+01 2.9303699999999999e+00 4.7824400000000002e+00 0 0 0
6279 444 4 0.0000000000000000e+00 1.1841820000000000e+01 5.8607399999999998e+00 0.0000000000000000e+00 0 0 0
6280 444 4 0.0000000000000000e+00 1.4379600000000000e+01 7.3259299999999996e+00 0.0000000000000000e+00 0 0 0
6281 444 4 2.0830000000000001e-02 1.1841870000000000e+01 5.8607399999999998e+00 7.1781499999999996e+00 0 0 0
6282 444 4 2.0830000000000001e-02 1.4379650000000000e+01 7.3259299999999996e+00 7.1781499999999996e+00 0 0 0
6283 444 4 0.0000000000000000e+00 1.2687749999999999e+01 7.3259299999999996e+00 2.3926400000000001e+00 0 0 0
6284 444 4 0.0000000000000000e+00 1.5225519999999999e+01 5.8607399999999998e+00 2.3926400000000001e+00 0 0 0
6286 444 4 0.0000000000000000e+00 1.3533960000000000e+01 5.8607399999999998e+00 4.7824499999999999e+00 0 0 0
6287 444 4 0.0000000000000000e+00 1.1841820000000000e+01 8.7911099999999998e+00 0.0000000000000000e+00 0 0 0
6289 444 4 2.0830000000000001e-02 1.1841870000000000e+01 8.7911099999999998e+00 7.1781899999999998e+00 0 0 0
6292 444 4 0.0000000000000000e+00 1.5225519999999999e+01 8.7911099999999998e+00 2.3926400000000001e+00 0 0 0
6294 444 4 0.0000000000000000e+00 1.3533970000000000e+01 8.7911099999999998e+00 4.7824400000000002e+00 0 0 0
6288 444 4 0.0000000000000000e+00 1.4379600000000000e+01 1.0256300000000000e+01 0.0000000000000000e+00 0 0 0
6290 444 4 2.0830000000000001e-02 1.4379650000000000e+01 1.0256300000000000e+01 7.1781600000000001e+00 0 0 0
6291 444 4 0.0000000000000000e+00 1.2687749999999999e+01 1.0256300000000000e+01 2.3926400000000001e+00 0 0 0
993 444 1 4.1499999999999998e-01 6.3005109004064277e+00 4.3654598179757569e+00 9.9958898410217802e+00 6 8 0
568 444 2 -8.2999999999999996e-01 4.8468816271650237e+00 5.4408902255865046e+00 1.0180559274548065e+01 4 3 0
5918 444 1 4.1499999999999998e-01 7.4568415606164153e+00 3.5013724015536978e+00 1.5362292112504980e+01 2 -5 0
991 444 2 -8.2999999999999996e-01 7.1319389793696750e+00 3.8957541226108474e+00 9.9300413200786171e+00 6 8 0
1267 444 2 -8.2999999999999996e-01 6.1441126375884929e+00 7.5123881128213101e+00 1.1496064137471732e+01 2 3 0
1268 444 1 4.1499999999999998e-01 6.9574719012874420e+00 7.2627127554893178e+00 1.1057497376903312e+01 2 3 0
1269 444 1 4.1499999999999998e-01 6.4053838040633639e+00 7.6999768091437009e+00 1.2397607107452684e+01 2 3 0
570 444 1 4.1499999999999998e-01 4.0029595831238218e+00 5.7512348473903163e+00 1.0508756921688596e+01 4 3 0
4898 444 1 4.1499999999999998e-01 5.9739072821392361e+00 3.2226925539467683e+00 1.3212764948110863e+01 3 6 0
4897 444 2 -8.2999999999999996e-01 6.7498596326902307e+00 3.6857345944738680e+00 1.3528553302872865e+01 3 6 0
4899 444 1 4.1499999999999998e-01 7.4858893906749708e+00 3.1494492143276545e+00 1.3233781881790037e+01 3 6 0
916 444 2 -8.2999999999999996e-01 5.6582895502301307e+00 6.0594445518338569e+00 1.4322446477077484e+01 -3 1 0
569 444 1 4.1499999999999998e-01 5.4579321367102445e+00 6.1497116796654980e+00 1.0381609930346700e+01 4 3 0
5793 444 1 4.1499999999999998e-01 4.0500459002204927e+00 3.8480976583042912e+00 1.0156953515409185e+01 -3 -2 0
918 444 1 4.1499999999999998e-01 5.9936298433058299e+00 5.2516525340380822e+00 1.3933535862181618e+01 -3 1 0
532 444 2 -8.2999999999999996e-01 7.3895427173127137e+00 8.7993011853953256e+00 1.3842853006244249e+01 1 3 0
533 444 1 4.1499999999999998e-01 7.0829050395513553e+00 8.3297651761183129e+00 1.4618573493464671e+01 1 3 0
917 444 1 4.1499999999999998e-01 6.2040737793517922e+00 6.1977000085922409e+00 1.5096550663501132e+01 -3 1 0
5187 444 1 4.1499999999999998e-01 4.7541165529429170e+00 7.9931882423697225e+00 1.0256109013473104e+01 0 0 0
5185 444 2 -8.2999999999999996e-01 3.9124109662695092e+00 8.3430324895456618e+00 9.9639219759931414e+00 0 0 0
933 444 1 4.1499999999999998e-01 5.5945124205566357e+00 1.0118757321122748e+01 1.3083868791317267e+01 1 -2 0
3325 444 2 -8.2999999999999996e-01 6.7349305644684394e+00 7.4054171642920545e+00 1.6239792241829633e+01 1 2 0
5186 444 1 4.1499999999999998e-01 3.8945739546678375e+00 9.2385922415265433e+00 1.0301393794655711e+01 0 0 0
4984 444 2 -8.2999999999999996e-01 3.6072287149189854e+00 1.0982953994491009e+01 1.0466807664160431e+01 5 3 0
2456 444 1 4.1499999999999998e-01 6.8350771083234791e+00 1.0357428445441081e+00 1.0433998441197231e+01 0 -2 0
5791 444 2 -8.2999999999999996e-01 3.9211738848944369e+00 2.9519601331746061e+00 1.0467696849977816e+01 -3 -2 0
2455 444 2 -8.2999999999999996e-01 5.9148432761424568e+00 1.2985797077102499e+00 1.0451868303533386e+01 0 -2 0
5792 444 1 4.1499999999999998e-01 4.7724953109331505e+00 2.5313436950573256e+00 1.0347009099059505e+01 -3 -2 0
2474 444 1 4.1499999999999998e-01 1.4825186512312214e+00 6.5994969156957817e+00 1.0549601882031956e+01 -3 3 0
2475 444 1 4.1499999999999998e-01 2.9074898662065469e+00 7.0053155992433336e+00 1.0238694303425664e+01 -3 3 0
2473 444 2 -8.2999999999999996e-01 2.3854917809566292e+00 6.2846564971031320e+00 1.0591398658154738e+01 -3 3 0
3962 444 1 4.1499999999999998e-01 5.5182149751501148e+00 1.1386060084048564e+01 1.0574364316859663e+01 -1 1 0
381 444 1 4.1499999999999998e-01 2.8764560818306917e+00 7.0261821663969437e+00 1.3413588537251899e+01 0 4 0
3977 444 1 4.1499999999999998e-01 2.3410277198715368e-01 5.7386029592076406e+00 1.3340633782644513e+01 1 -1 0
5624 444 1 4.1499999999999998e-01 2.8214378598935852e+00 8.9228418725228202e+00 1.2153325586207149e+01 -4 3 0
617 444 1 4.1499999999999998e-01 1.3098184981712917e+00 4.6337844482241071e+00 1.0476172894647089e+01 4 -1 0
3976 444 2 -8.2999999999999996e-01 7.8274864922811604e-01 6.5152461375494193e+00 1.3230883906609673e+01 1 -1 0
380 444 1 4.1499999999999998e-01 4.3713845600615500e+00 6.9814464735934783e+00 1.3648285821728271e+01 0 4 0
379 444 2 -8.2999999999999996e-01 3.6697353594933659e+00 7.5573927908969294e+00 1.3344631191281325e+01 0 4 0
5623 444 2 -8.2999999999999996e-01 2.0552723602760117e+00 9.4547955713450413e+00 1.1938270317684447e+01 -4 3 0
1056 444 1 4.1499999999999998e-01 4.8657137978473406e+00 1.0774745108598713e+00 1.2850858393256138e+01 2 5 0
4986 444 1 4.1499999999999998e-01 3.0047284048535250e+00 1.0458260299742603e+01 1.0993990792576685e+01 5 3 0
3216 444 1 4.1499999999999998e-01 9.6619257947268444e-01 2.3524341544640528e+00 1.3839990632643568e+01 -1 -3 0
932 444 1 4.1499999999999998e-01 4.4608220496884714e+00 9.2668071638195304e+00 1.3613795606190441e+01 1 -2 0
3978 444 1 4.1499999999999998e-01 7.3283563981676725e-01 6.7141627747533397e+00 1.2295911861217972e+01 1 -1 0
931 444 2 -8.2999999999999996e-01 4.7309532078524494e+00 1.0177072778206451e+01 1.3492643391963876e+01 1 -2 0
5625 444 1 4.1499999999999998e-01 1.6667651599469606e+00 9.6698746798441668e+00 1.2786230381227892e+01 -4 3 0
2835 444 1 4.1499999999999998e-01 3.3098185027683606e+00 2.6853979153114942e+00 1.3485636187225808e+01 0 2 0
616 444 2 -8.2999999999999996e-01 1.0939541932950771e+00 3.7184282858956146e+00 1.0297963910057417e+01 4 -1 0
1054 444 2 -8.2999999999999996e-01 4.9900512452216459e+00 1.7607935114796365e+00 1.3509529409717979e+01 2 5 0
2833 444 2 -8.2999999999999996e-01 2.5716259351483690e+00 3.0636149544885458e+00 1.3963397936119748e+01 0 2 0
618 444 1 4.1499999999999998e-01 1.8557800914936859e+00 3.2277717083292132e+00 1.0606363041190976e+01 4 -1 0
3214 444 2 -8.2999999999999996e-01 6.1064554588534922e-02 2.0410644098740085e+00 1.3844891543414649e+01 -1 -3 0
3961 444 2 -8.2999999999999996e-01 6.4310380266505991e+00 1.1098016883293282e+01 1.0578546235483284e+01 -1 1 0
1055 444 1 4.1499999999999998e-01 5.5922071401400260e+00 1.3744370051283235e+00 1.4145430212961424e+01 2 5 0
992 444 1 4.1499999999999998e-01 6.9721117821565866e+00 3.0618321170330538e+00 1.0371925262947672e+01 6 8 0
4510 444 2 -8.2999999999999996e-01 7.0021780069696655e+00 5.1376384624253557e-01 1.5016432487975662e+01 -4 6 0
3620 444 1 4.1499999999999998e-01 1.4096590749156110e-01 1.1623422002497193e+01 1.0130331877645673e+01 2 1 0
2457 444 1 4.1499999999999998e-01 5.4312641943803488e+00 4.9142273343853549e-01 1.0276135682277143e+01 0 -2 0
2085 444 1 4.1499999999999998e-01 9.5298982586879688e-01 6.5984458771925070e-01 1.0082078338681594e+01 4 0 0
5763 444 1 4.1499999999999998e-01 3.4905434123435102e+00 1.7722470854325101e-01 1.0245841630114358e+01 -5 3 0
2834 444 1 4.1499999999999998e-01 2.9554650170647787e+00 3.7782158672731145e+00 1.4471576291736429e+01 0 2 0
1457 444 1 4.1499999999999998e-01 8.9601068414986895e-01 8.4222399477158838e+00 1.6176815968400092e+01 -3 1 0
3215 444 1 4.1499999999999998e-01 1.3101844599176765e-01 1.0976566673298553e+00 1.3698876701750363e+01 -1 -3 0
925 444 2 -8.2999999999999996e-01 4.5181165318755501e-01 9.1730477145838680e+00 1.4187540624596743e+01 1 5 0
3551 444 1 4.1499999999999998e-01 1.4340227554225218e+00 5.4885010592072945e+00 1.5767576287522136e+01 2 -5 0
2084 444 1 4.1499999999999998e-01 2.7956284097435002e-02 1.8125803958283835e+00 1.0409810578041991e+01 4 0 0
3621 444 1 4.1499999999999998e-01 5.1161381298839093e-01 1.0394579094464659e+01 1.0933114917603019e+01 2 1 0
5762 444 1 4.1499999999999998e-01 3.0133431339937840e+00 1.6115597836496129e+00 1.0328654597881057e+01 -5 3 0
926 444 1 4.1499999999999998e-01 7.6877698843542719e-01 8.2799882154257087e+00 1.4052594472994095e+01 1 5 0
1914 444 1 4.1499999999999998e-01 3.2526426846691603e+00 1.0629665153692041e+01 1.4735254623166615e+01 -2 -1 0
1913 444 1 4.1499999999999998e-01 2.2627919691051299e+00 1.1684065322135266e+01 1.5182838903626697e+01 -2 -1 0
5761 444 2 -8.2999999999999996e-01 2.6990032878902266e+00 7.0749488321991505e-01 1.0338089466054944e+01 -5 3 0
3140 444 1 4.1499999999999998e-01 3.4897411009442258e+00 8.2023979587913565e-01 1.5934702072248072e+01 2 0 0
3963 444 1 4.1499999999999998e-01 6.7070042535920686e+00 1.1188305362689571e+01 1.1490644134553344e+01 -1 1 0
1912 444 2 -8.2999999999999996e-01 2.8098184032566085e+00 1.0970965019673427e+01 1.5512205973754957e+01 -2 -1 0
2083 444 2 -8.2999999999999996e-01 2.6797995120082841e-02 8.8838283545344021e-01 1.0160633107118439e+01 4 0 0
4908 444 1 4.1499999999999998e-01 8.0767700140231486e+00 9.9548097958052804e+00 1.0253692171638153e+01 4 -3 0
534 444 1 4.1499999999999998e-01 7.8848644562486196e+00 9.5406027841628678e+00 1.4191222548546241e+01 1 3 0
4906 444 2 -8.2999999999999996e-01 8.9223267355503495e+00 9.5196011584496905e+00 1.0362593886865454e+01 4 -3 0
4511 444 1 4.1499999999999998e-01 7.7431065464155004e+00 6.3672117826683117e-01 1.4423020004241710e+01 -4 6 0
3925 444 2 -8.2999999999999996e-01 8.8363229617393806e+00 1.0486421691001814e+01 1.5313400657437560e+01 0 0 0
3926 444 1 4.1499999999999998e-01 8.5550950261943992e+00 1.0988599297802891e+01 1.6078227720646247e+01 0 0 0
5029 444 2 -8.2999999999999996e-01 8.6826022686058213e+00 1.4992870648808685e+00 1.0386117583519820e+01 -1 4 0
5030 444 1 4.1499999999999998e-01 9.2560943349580054e+00 2.1330819355865391e+00 9.9552547278625791e+00 -1 4 0
749 444 1 4.1499999999999998e-01 8.2349422452265824e+00 5.5616694995204670e+00 1.0208475801775261e+01 1 -2 0
1698 444 1 4.1499999999999998e-01 1.2279391883665404e+01 6.7973442124624395e-01 1.0082644614671095e+01 5 1 0
2082 444 1 4.1499999999999998e-01 1.4924624649142880e+01 5.1329427981032705e+00 1.2582940072473269e+01 -4 -1 0
274 444 2 -8.2999999999999996e-01 1.0731488216088490e+01 3.3156817160617096e+00 1.0122625039512423e+01 -2 1 0
3927 444 1 4.1499999999999998e-01 9.7756581965525964e+00 1.0657700482532382e+01 1.5245985607984238e+01 0 0 0
276 444 1 4.1499999999999998e-01 1.1021559764536958e+01 4.1729355607875682e+00 9.8108454684040360e+00 -2 1 0
4907 444 1 4.1499999999999998e-01 8.8058577602198227e+00 8.6627697811533046e+00 9.9520977747340478e+00 4 -3 0
748 444 2 -8.2999999999999996e-01 8.4799431111640491e+00 6.4857273566973248e+00 1.0256678879744367e+01 1 -2 0
275 444 1 4.1499999999999998e-01 1.0870791267429968e+01 3.3448390957954999e+00 1.1069185939054471e+01 -2 1 0
2198 444 1 4.1499999999999998e-01 9.0280896622520785e+00 7.5063822821683912e+00 1.4336667512722656e+01 -1 -4 0
750 444 1 4.1499999999999998e-01 9.3901252254150620e+00 6.4775489331265996e+00 1.0552877330436669e+01 1 -2 0
2197 444 2 -8.2999999999999996e-01 9.7247565619151217e+00 7.0411678612859347e+00 1.4799769050802208e+01 -1 -4 0
2803 444 2 -8.2999999999999996e-01 1.4322247273690589e+01 3.7217541849926810e+00 1.0012631745048967e+01 4 -1 0
2804 444 1 4.1499999999999998e-01 1.4022640953659225e+01 2.8126631324838387e+00 1.0007963831772217e+01 4 -1 0
5963 444 1 4.1499999999999998e-01 1.1220276592754740e+01 6.2631110260502840e+00 1.1658491406344156e+01 -3 2 0
5964 444 1 4.1499999999999998e-01 1.1890005275260325e+01 6.8468494166140061e+00 1.0432682142390661e+01 -3 2 0
5962 444 2 -8.2999999999999996e-01 1.1137230802069812e+01 6.3229872121620323e+00 1.0706782314240073e+01 -3 2 0
4300 444 2 -8.2999999999999996e-01 1.4071881504216066e+01 7.9505414815235484e+00 1.2300592840362357e+01 -4 4 0
4301 444 1 4.1499999999999998e-01 1.4223511207803819e+01 7.0124915323850061e+00 1.2185255859592216e+01 -4 4 0
4302 444 1 4.1499999999999998e-01 1.4582907375238227e+01 8.1826979452593847e+00 1.3075955911064295e+01 -4 4 0
2081 444 1 4.1499999999999998e-01 1.4493481334964637e+01 4.7763703858203277e+00 1.1176218065897418e+01 -4 -1 0
2069 444 1 4.1499999999999998e-01 1.4156085024944067e+01 9.1982828730081554e+00 1.1005880669776360e+01 1 -1 0
2765 444 1 4.1499999999999998e-01 1.2541163837126531e+01 6.1382423045590722e+00 1.3938681373424014e+01 -4 -2 0
5048 444 1 4.1499999999999998e-01 1.2074651173715015e+01 8.9985146885629472e+00 1.3853045824114915e+01 2 1 0
425 444 1 4.1499999999999998e-01 9.3110162753513830e+00 3.8760490430522547e+00 1.5097980381734649e+01 0 -4 0
5047 444 2 -8.2999999999999996e-01 1.2230292923236426e+01 9.6098854198446642e+00 1.3133161551848593e+01 2 1 0
5049 444 1 4.1499999999999998e-01 1.2916536619051550e+01 9.1952560595433503e+00 1.2610300060173355e+01 2 1 0
2080 444 2 -8.2999999999999996e-01 1.4739520053743782e+01 5.5195178761313342e+00 1.1727061641429286e+01 -4 -1 0
2764 444 2 -8.2999999999999996e-01 1.1783715401864528e+01 6.3032968449425457e+00 1.3377200490441364e+01 -4 -2 0
2766 444 1 4.1499999999999998e-01 1.1077447194918902e+01 6.5220010705259979e+00 1.3985136134343238e+01 -4 -2 0
1665 444 1 4.1499999999999998e-01 1.1357033335599372e+01 1.1027723659806417e+01 1.2098422247729587e+01 1 2 0
4764 444 1 4.1499999999999998e-01 1.2511289527483720e+01 1.1189985628379388e+01 1.4677570676090737e+01 4 3 0
2068 444 2 -8.2999999999999996e-01 1.4349718083136031e+01 9.9670488137397513e+00 1.0469468858143623e+01 1 -1 0
3132 444 1 4.1499999999999998e-01 1.1046311609654820e+01 3.5579758323955875e+00 1.3249479234403587e+01 3 0 0
2199 444 1 4.1499999999999998e-01 9.8155156247269471e+00 7.5094259476804783e+00 1.5629666574157959e+01 -1 -4 0
1696 444 2 -8.2999999999999996e-01 1.3112584621402068e+01 7.8420459835388512e-01 1.0542109476154002e+01 5 1 0
3130 444 2 -8.2999999999999996e-01 1.1337544749283056e+01 2.8954094535364239e+00 1.2623044024920992e+01 3 0 0
5023 444 2 -8.2999999999999996e-01 1.3413231812947222e+01 6.0267827304261372e+00 1.5371516650300551e+01 2 -1 0
5024 444 1 4.1499999999999998e-01 1.3110150012593921e+01 5.4432231183680289e+00 1.6067096780066436e+01 2 -1 0
213 444 1 4.1499999999999998e-01 1.4587669877514507e+01 5.1678014865191964e+00 1.4702426333775337e+01 1 2 0
424 444 2 -8.2999999999999996e-01 1.0133300625588415e+01 4.2099973331725025e+00 1.4739428898736719e+01 0 -4 0
5025 444 1 4.1499999999999998e-01 1.3791226311822586e+01 6.7749652577376018e+00 1.5833658717655357e+01 2 -1 0
1663 444 2 -8.2999999999999996e-01 1.1129335116803853e+01 1.1433012714020618e+01 1.1261686774504243e+01 1 2 0
1697 444 1 4.1499999999999998e-01 1.2868806603761678e+01 1.0990791386128509e+00 1.1412545248832329e+01 5 1 0
1664 444 1 4.1499999999999998e-01 1.0613090636659471e+01 1.0768341867968244e+01 1.0805686474347223e+01 1 2 0
3131 444 1 4.1499999999999998e-01 1.2256262602699435e+01 2.7431965290446709e+00 1.2844449976950411e+01 3 0 0
2843 444 1 4.1499999999999998e-01 1.4742671962121353e+01 2.5149951876696495e+00 1.3432860979825563e+01 -2 1 0
2842 444 2 -8.2999999999999996e-01 1.3901685672831121e+01 2.1356060211024568e+00 1.3177835857790608e+01 -2 1 0
3826 444 2 -8.2999999999999996e-01 8.8700169531702358e+00 1.8728390931599377e+00 1.3210727428071420e+01 -2 2 0
2844 444 1 4.1499999999999998e-01 1.3755590565584283e+01 1.4302403477221504e+00 1.3808190859118675e+01 -2 1 0
3828 444 1 4.1499999999999998e-01 9.7022692346536985e+00 2.2956516401194995e+00 1.3422429156140739e+01 -2 2 0
3827 444 1 4.1499999999999998e-01 8.9017562706607745e+00 1.7415323332683268e+00 1.2263107733679112e+01 -2 2 0
527 444 1 4.1499999999999998e-01 1.4632306364829136e+01 1.0635609025701134e+01 1.2753437351373368e+01 -4 1 0
5917 444 2 -8.2999999999999996e-01 7.8224707914780804e+00 3.4165108754370053e+00 1.6242829608255210e+01 2 -5 0
2048 444 1 4.1499999999999998e-01 1.3456612745987535e+01 5.2870490557977157e-01 1.5771485883215936e+01 4 1 0
2047 444 2 -8.2999999999999996e-01 1.3813718959758098e+01 2.3465682514296590e-01 1.4933486562016517e+01 4 1 0
426 444 1 4.1499999999999998e-01 1.0091001228621828e+01 5.1555166612659935e+00 1.4882384812262103e+01 0 -4 0
526 444 2 -8.2999999999999996e-01 1.4848611339293424e+01 1.1424304778588963e+01 1.3250833820261615e+01 -4 1 0
5031 444 1 4.1499999999999998e-01 9.1411252208291813e+00 6.6347023464263610e-01 1.0300100903814190e+01 -1 4 0
690 444 1 4.1499999999999998e-01 8.2482849732187713e+00 1.1545487221142801e+01 1.3776518153726567e+01 -2 2 0
206 444 1 4.1499999999999998e-01 1.3888293563556708e+01 1.1634888496862033e+01 1.0134110539669162e+01 2 -3 0
3327 444 1 4.1499999999999998e-01 6.0710860764358809e+00 7.5422506112421583e+00 1.6915676472094855e+01 1 2 0
3326 444 1 4.1499999999999998e-01 7.4996865935987911e+00 7.0825890352713676e+00 1.6716408839524732e+01 1 2 0
3552 444 1 4.1499999999999998e-01 1.8545771716394068e+00 5.0246695360361464e+00 1.7145941444248646e+01 2 -5 0
1341 444 1 4.1499999999999998e-01 6.4547328914397750e-01 5.4463143000359693e-01 2.4078281548167794e+01 -2 0 0
4048 444 2 -8.2999999999999996e-01 8.1934547456464923e-01 9.9958421551967014e+00 2.0723082326676248e+01 3 -5 0
3616 444 2 -8.2999999999999996e-01 3.2586145695301130e+00 4.5720131214403965e+00 1.8345552251192867e+01 3 4 0
603 444 1 4.1499999999999998e-01 6.3898675677753101e+00 4.1932657840652761e+00 1.9468691978399910e+01 1 -1 0
601 444 2 -8.2999999999999996e-01 5.9041838571083325e+00 4.9735480481656484e+00 1.9201290731365802e+01 1 -1 0
3617 444 1 4.1499999999999998e-01 3.1606237350072299e+00 3.6717589594287463e+00 1.8655669297042301e+01 3 4 0
3618 444 1 4.1499999999999998e-01 4.1823226556976580e+00 4.7766823348932270e+00 1.8490832598469083e+01 3 4 0
5919 444 1 4.1499999999999998e-01 7.1489998685365217e+00 2.9506596098036879e+00 1.6738462301493122e+01 2 -5 0
4543 444 2 -8.2999999999999996e-01 5.8931619450422738e-02 6.1641826409567795e+00 1.9695799446423759e+01 3 -3 0
1095 444 1 4.1499999999999998e-01 1.5655488402515421e+00 7.1979445113955292e+00 1.9843249007441607e+01 -1 3 0
1458 444 1 4.1499999999999998e-01 2.0489975201118686e+00 9.2557473908847268e+00 1.6694292482546025e+01 -3 1 0
574 444 2 -8.2999999999999996e-01 2.8625435451138537e+00 2.0343778340323269e+00 1.9367775172319149e+01 0 0 0
576 444 1 4.1499999999999998e-01 3.6482818534260342e+00 1.5168800175536050e+00 1.9191584403175007e+01 0 0 0
5811 444 1 4.1499999999999998e-01 4.8204477184463670e+00 2.0139459424514654e+00 2.2819143624636130e+01 -1 -3 0
575 444 1 4.1499999999999998e-01 3.0966924438137688e+00 2.5775710078033636e+00 2.0120335694825446e+01 0 0 0
46 444 2 -8.2999999999999996e-01 3.8115620406611246e+00 6.6459272414290274e+00 2.2062951013233210e+01 0 1 0
5385 444 1 4.1499999999999998e-01 1.1302344605157284e+00 2.9316688703717562e+00 1.9188051498044672e+01 2 1 0
5383 444 2 -8.2999999999999996e-01 1.9440052938429506e-01 3.1126522225473234e+00 1.9275758279128990e+01 2 1 0
1905 444 1 4.1499999999999998e-01 4.5529448469056844e+00 8.6842204206570273e+00 1.8346487053928673e+01 4 0 0
1903 444 2 -8.2999999999999996e-01 5.0024956884966354e+00 7.9355098680111116e+00 1.8738365692248752e+01 4 0 0
1904 444 1 4.1499999999999998e-01 4.2997687603773578e+00 7.3289889349514183e+00 1.8971902793518392e+01 4 0 0
5692 444 2 -8.2999999999999996e-01 7.1326818097232048e+00 7.9194571172780011e+00 2.1000169633000215e+01 0 -3 0
4416 444 1 4.1499999999999998e-01 4.0106469031550258e+00 4.1298872695180489e+00 2.2107369058804103e+01 1 -1 0
4414 444 2 -8.2999999999999996e-01 4.1280336004625662e+00 3.6788377373966865e+00 2.1271302801271801e+01 1 -1 0