LAMMPS data file via write_data, version 11 Aug 2017, timestep = 5000000

7160 atoms
4 atom types
4000 bonds
1 bond types
2000 angles
1 angle types

0.0000000000000000e+00 4.5679949999999998e+01 xlo xhi
0.0000000000000000e+00 4.6885919999999999e+01 ylo yhi
0.0000000000000000e+00 6.5000000000000000e+01 zlo zhi

Masses

1 1.0079
2 15.9994
3 18.9984
4 107.868

Bond Coeffs # harmonic

1 450 0.9572

Angle Coeffs # harmonic

1 500 104.52

Atoms # full

6009 444 4 0.0000000000000000e+00 1.6907200000000000e+00 0.0000000000000000e+00 0.0000000000000000e+00 0 0 0
6010 444 4 0.0000000000000000e+00 4.2285000000000004e+00 1.4651900000000000e+00 0.0000000000000000e+00 0 0 0
6011 444 4 2.7779999999999999e-02 1.6907700000000001e+00 0.0000000000000000e+00 7.1781499999999996e+00 0 0 0
6012 444 4 2.7779999999999999e-02 4.2285500000000003e+00 1.4651900000000000e+00 7.1781499999999996e+00 0 0 0
6013 444 4 0.0000000000000000e+00 2.5366499999999998e+00 1.4651900000000000e+00 2.3926400000000001e+00 0 0 0
6014 444 4 0.0000000000000000e+00 5.0744199999999999e+00 0.0000000000000000e+00 2.3926400000000001e+00 0 0 0
6015 444 4 0.0000000000000000e+00 8.4509000000000001e-01 1.4651900000000000e+00 4.7824200000000001e+00 0 0 0
6016 444 4 0.0000000000000000e+00 3.3828600000000000e+00 0.0000000000000000e+00 4.7824499999999999e+00 0 0 0
6017 444 4 0.0000000000000000e+00 1.6907200000000000e+00 2.9303699999999999e+00 0.0000000000000000e+00 0 0 0
6018 444 4 0.0000000000000000e+00 4.2285000000000004e+00 4.3955599999999997e+00 0.0000000000000000e+00 0 0 0
6019 444 4 2.7779999999999999e-02 1.6907700000000001e+00 2.9303699999999999e+00 7.1781899999999998e+00 0 0 0
6020 444 4 2.7779999999999999e-02 4.2285500000000003e+00 4.3955599999999997e+00 7.1781600000000001e+00 0 0 0
6021 444 4 0.0000000000000000e+00 2.5366499999999998e+00 4.3955599999999997e+00 2.3926400000000001e+00 0 0 0
6022 444 4 0.0000000000000000e+00 5.0744199999999999e+00 2.9303699999999999e+00 2.3926400000000001e+00 0 0 0
6023 444 4 0.0000000000000000e+00 8.4509000000000001e-01 4.3955599999999997e+00 4.7824499999999999e+00 0 0 0
6024 444 4 0.0000000000000000e+00 3.3828700000000000e+00 2.9303699999999999e+00 4.7824400000000002e+00 0 0 0
6025 444 4 0.0000000000000000e+00 1.6907200000000000e+00 5.8607399999999998e+00 0.0000000000000000e+00 0 0 0
6026 444 4 0.0000000000000000e+00 4.2285000000000004e+00 7.3259299999999996e+00 0.0000000000000000e+00 0 0 0
6027 444 4 2.7779999999999999e-02 1.6907700000000001e+00 5.8607399999999998e+00 7.1781499999999996e+00 0 0 0
6028 444 4 2.7779999999999999e-02 4.2285500000000003e+00 7.3259299999999996e+00 7.1781499999999996e+00 0 0 0
6029 444 4 0.0000000000000000e+00 2.5366499999999998e+00 7.3259299999999996e+00 2.3926400000000001e+00 0 0 0
6030 444 4 0.0000000000000000e+00 5.0744199999999999e+00 5.8607399999999998e+00 2.3926400000000001e+00 0 0 0
6031 444 4 0.0000000000000000e+00 8.4509000000000001e-01 7.3259299999999996e+00 4.7824200000000001e+00 0 0 0
6032 444 4 0.0000000000000000e+00 3.3828600000000000e+00 5.8607399999999998e+00 4.7824499999999999e+00 0 0 0
6137 444 4 0.0000000000000000e+00 6.7662699999999996e+00 0.0000000000000000e+00 0.0000000000000000e+00 0 0 0
6139 444 4 2.7779999999999999e-02 6.7663200000000003e+00 0.0000000000000000e+00 7.1781499999999996e+00 0 0 0
6141 444 4 0.0000000000000000e+00 7.6121999999999996e+00 1.4651900000000000e+00 2.3926400000000001e+00 0 0 0
6143 444 4 0.0000000000000000e+00 5.9206399999999997e+00 1.4651900000000000e+00 4.7824200000000001e+00 0 0 0
6145 444 4 0.0000000000000000e+00 6.7662699999999996e+00 2.9303699999999999e+00 0.0000000000000000e+00 0 0 0
6147 444 4 2.7779999999999999e-02 6.7663200000000003e+00 2.9303699999999999e+00 7.1781899999999998e+00 0 0 0
6149 444 4 0.0000000000000000e+00 7.6121999999999996e+00 4.3955599999999997e+00 2.3926400000000001e+00 0 0 0
6151 444 4 0.0000000000000000e+00 5.9206399999999997e+00 4.3955599999999997e+00 4.7824499999999999e+00 0 0 0
6153 444 4 0.0000000000000000e+00 6.7662699999999996e+00 5.8607399999999998e+00 0.0000000000000000e+00 0 0 0
6155 444 4 2.7779999999999999e-02 6.7663200000000003e+00 5.8607399999999998e+00 7.1781499999999996e+00 0 0 0
6157 444 4 0.0000000000000000e+00 7.6121999999999996e+00 7.3259299999999996e+00 2.3926400000000001e+00 0 0 0
6159 444 4 0.0000000000000000e+00 5.9206399999999997e+00 7.3259299999999996e+00 4.7824200000000001e+00 0 0 0
6033 444 4 0.0000000000000000e+00 1.6907200000000000e+00 8.7911099999999998e+00 0.0000000000000000e+00 0 0 0
6035 444 4 2.7779999999999999e-02 1.6907700000000001e+00 8.7911099999999998e+00 7.1781899999999998e+00 0 0 0
6038 444 4 0.0000000000000000e+00 5.0744199999999999e+00 8.7911099999999998e+00 2.3926400000000001e+00 0 0 0
6040 444 4 0.0000000000000000e+00 3.3828700000000000e+00 8.7911099999999998e+00 4.7824400000000002e+00 0 0 0
6161 444 4 0.0000000000000000e+00 6.7662699999999996e+00 8.7911099999999998e+00 0.0000000000000000e+00 0 0 0
6163 444 4 2.7779999999999999e-02 6.7663200000000003e+00 8.7911099999999998e+00 7.1781899999999998e+00 0 0 0
6034 444 4 0.0000000000000000e+00 4.2285000000000004e+00 1.0256300000000000e+01 0.0000000000000000e+00 0 0 0
6036 444 4 2.7779999999999999e-02 4.2285500000000003e+00 1.0256300000000000e+01 7.1781600000000001e+00 0 0 0
6037 444 4 0.0000000000000000e+00 2.5366499999999998e+00 1.0256300000000000e+01 2.3926400000000001e+00 0 0 0
6039 444 4 0.0000000000000000e+00 8.4509000000000001e-01 1.0256300000000000e+01 4.7824499999999999e+00 0 0 0
6165 444 4 0.0000000000000000e+00 7.6121999999999996e+00 1.0256300000000000e+01 2.3926400000000001e+00 0 0 0
6167 444 4 0.0000000000000000e+00 5.9206399999999997e+00 1.0256300000000000e+01 4.7824499999999999e+00 0 0 0
6138 444 4 0.0000000000000000e+00 9.3040500000000002e+00 1.4651900000000000e+00 0.0000000000000000e+00 0 0 0
6140 444 4 2.7779999999999999e-02 9.3041000000000000e+00 1.4651900000000000e+00 7.1781499999999996e+00 0 0 0
6142 444 4 0.0000000000000000e+00 1.0149970000000000e+01 0.0000000000000000e+00 2.3926400000000001e+00 0 0 0
6144 444 4 0.0000000000000000e+00 8.4584100000000007e+00 0.0000000000000000e+00 4.7824499999999999e+00 0 0 0
6146 444 4 0.0000000000000000e+00 9.3040500000000002e+00 4.3955599999999997e+00 0.0000000000000000e+00 0 0 0
6148 444 4 2.7779999999999999e-02 9.3041000000000000e+00 4.3955599999999997e+00 7.1781600000000001e+00 0 0 0
6150 444 4 0.0000000000000000e+00 1.0149970000000000e+01 2.9303699999999999e+00 2.3926400000000001e+00 0 0 0
6152 444 4 0.0000000000000000e+00 8.4584200000000003e+00 2.9303699999999999e+00 4.7824400000000002e+00 0 0 0
6154 444 4 0.0000000000000000e+00 9.3040500000000002e+00 7.3259299999999996e+00 0.0000000000000000e+00 0 0 0
6156 444 4 2.7779999999999999e-02 9.3041000000000000e+00 7.3259299999999996e+00 7.1781499999999996e+00 0 0 0
6158 444 4 0.0000000000000000e+00 1.0149970000000000e+01 5.8607399999999998e+00 2.3926400000000001e+00 0 0 0
6160 444 4 0.0000000000000000e+00 8.4584100000000007e+00 5.8607399999999998e+00 4.7824499999999999e+00 0 0 0
6271 444 4 0.0000000000000000e+00 1.0996190000000000e+01 1.4651900000000000e+00 4.7824200000000001e+00 0 0 0
6279 444 4 0.0000000000000000e+00 1.0996190000000000e+01 4.3955599999999997e+00 4.7824499999999999e+00 0 0 0
6287 444 4 0.0000000000000000e+00 1.0996190000000000e+01 7.3259299999999996e+00 4.7824200000000001e+00 0 0 0
6166 444 4 0.0000000000000000e+00 1.0149970000000000e+01 8.7911099999999998e+00 2.3926400000000001e+00 0 0 0
6168 444 4 0.0000000000000000e+00 8.4584200000000003e+00 8.7911099999999998e+00 4.7824400000000002e+00 0 0 0
6162 444 4 0.0000000000000000e+00 9.3040500000000002e+00 1.0256300000000000e+01 0.0000000000000000e+00 0 0 0
6164 444 4 2.7779999999999999e-02 9.3041000000000000e+00 1.0256300000000000e+01 7.1781600000000001e+00 0 0 0
6295 444 4 0.0000000000000000e+00 1.0996190000000000e+01 1.0256300000000000e+01 4.7824499999999999e+00 0 0 0
6265 444 4 0.0000000000000000e+00 1.1841820000000000e+01 0.0000000000000000e+00 0.0000000000000000e+00 0 0 0
6266 444 4 0.0000000000000000e+00 1.4379600000000000e+01 1.4651900000000000e+00 0.0000000000000000e+00 0 0 0
6267 444 4 2.7779999999999999e-02 1.1841870000000000e+01 0.0000000000000000e+00 7.1781499999999996e+00 0 0 0
6268 444 4 2.7779999999999999e-02 1.4379650000000000e+01 1.4651900000000000e+00 7.1781499999999996e+00 0 0 0
6269 444 4 0.0000000000000000e+00 1.2687749999999999e+01 1.4651900000000000e+00 2.3926400000000001e+00 0 0 0
6270 444 4 0.0000000000000000e+00 1.5225519999999999e+01 0.0000000000000000e+00 2.3926400000000001e+00 0 0 0
6272 444 4 0.0000000000000000e+00 1.3533960000000000e+01 0.0000000000000000e+00 4.7824499999999999e+00 0 0 0
6273 444 4 0.0000000000000000e+00 1.1841820000000000e+01 2.9303699999999999e+00 0.0000000000000000e+00 0 0 0
6274 444 4 0.0000000000000000e+00 1.4379600000000000e+01 4.3955599999999997e+00 0.0000000000000000e+00 0 0 0
6275 444 4 2.7779999999999999e-02 1.1841870000000000e+01 2.9303699999999999e+00 7.1781899999999998e+00 0 0 0
6276 444 4 2.7779999999999999e-02 1.4379650000000000e+01 4.3955599999999997e+00 7.1781600000000001e+00 0 0 0
6277 444 4 0.0000000000000000e+00 1.2687749999999999e+01 4.3955599999999997e+00 2.3926400000000001e+00 0 0 0
6278 444 4 0.0000000000000000e+00 1.5225519999999999e+01 2.9303699999999999e+00 2.3926400000000001e+00 0 0 0
6280 444 4 0.0000000000000000e+00 1.3533970000000000e+01 2.9303699999999999e+00 4.7824400000000002e+00 0 0 0
6281 444 4 0.0000000000000000e+00 1.1841820000000000e+01 5.8607399999999998e+00 0.0000000000000000e+00 0 0 0
6282 444 4 0.0000000000000000e+00 1.4379600000000000e+01 7.3259299999999996e+00 0.0000000000000000e+00 0 0 0
6283 444 4 2.7779999999999999e-02 1.1841870000000000e+01 5.8607399999999998e+00 7.1781499999999996e+00 0 0 0
6284 444 4 2.7779999999999999e-02 1.4379650000000000e+01 7.3259299999999996e+00 7.1781499999999996e+00 0 0 0
6285 444 4 0.0000000000000000e+00 1.2687749999999999e+01 7.3259299999999996e+00 2.3926400000000001e+00 0 0 0
6286 444 4 0.0000000000000000e+00 1.5225519999999999e+01 5.8607399999999998e+00 2.3926400000000001e+00 0 0 0
6288 444 4 0.0000000000000000e+00 1.3533960000000000e+01 5.8607399999999998e+00 4.7824499999999999e+00 0 0 0
6289 444 4 0.0000000000000000e+00 1.1841820000000000e+01 8.7911099999999998e+00 0.0000000000000000e+00 0 0 0
6291 444 4 2.7779999999999999e-02 1.1841870000000000e+01 8.7911099999999998e+00 7.1781899999999998e+00 0 0 0
6294 444 4 0.0000000000000000e+00 1.5225519999999999e+01 8.7911099999999998e+00 2.3926400000000001e+00 0 0 0
6296 444 4 0.0000000000000000e+00 1.3533970000000000e+01 8.7911099999999998e+00 4.7824400000000002e+00 0 0 0
6290 444 4 0.0000000000000000e+00 1.4379600000000000e+01 1.0256300000000000e+01 0.0000000000000000e+00 0 0 0
6292 444 4 2.7779999999999999e-02 1.4379650000000000e+01 1.0256300000000000e+01 7.1781600000000001e+00 0 0 0
6293 444 4 0.0000000000000000e+00 1.2687749999999999e+01 1.0256300000000000e+01 2.3926400000000001e+00 0 0 0
1758 444 1 4.1499999999999998e-01 5.7167756349187320e+00 5.0202383882261268e+00 1.0148581017101771e+01 1 -1 0
5143 444 2 -8.2999999999999996e-01 2.1818788963566775e+00 2.6014489772606026e+00 1.0428472613217183e+01 -3 -4 0
5145 444 1 4.1499999999999998e-01 1.2553855243742700e+00 2.3713076438001259e+00 1.0498309355047851e+01 -3 -4 0
4733 444 1 4.1499999999999998e-01 2.3817609651668286e+00 6.8003992946091438e+00 1.0444419493876710e+01 0 3 0
4732 444 2 -8.2999999999999996e-01 3.3011900104304086e+00 6.7950276736667083e+00 1.0178236716648513e+01 0 3 0
4734 444 1 4.1499999999999998e-01 3.5393939028403887e+00 5.8681899684776013e+00 1.0156726900227312e+01 0 3 0
375 444 1 4.1499999999999998e-01 4.7764465184399256e+00 7.6045816694037898e+00 1.1031055858637243e+01 3 0 0
1021 444 2 -8.2999999999999996e-01 4.1133194917016827e+00 4.2865553022503926e+00 1.0684267578580529e+01 -3 2 0
5599 444 2 -8.2999999999999996e-01 3.1149624569247578e+00 9.5445699851975760e+00 9.9388774378326818e+00 10 0 0
5601 444 1 4.1499999999999998e-01 2.2286732476783411e+00 9.4937320545990715e+00 1.0296842292652835e+01 10 0 0
3881 444 1 4.1499999999999998e-01 4.2431294638661781e+00 4.8204187248680306e+00 1.3803348698913121e+01 4 4 0
4418 444 1 4.1499999999999998e-01 1.6580392538110058e+00 3.7526103083531877e+00 1.2584813149237966e+01 5 2 0
1022 444 1 4.1499999999999998e-01 3.4292376739928314e+00 3.6650266707542518e+00 1.0435337464039870e+01 -3 2 0
3478 444 2 -8.2999999999999996e-01 7.1490828105208175e+00 6.1805311603050574e+00 1.3218017841462872e+01 6 -5 0
3882 444 1 4.1499999999999998e-01 5.6558709530657350e+00 5.2111426675964418e+00 1.3424677726955245e+01 4 4 0
3880 444 2 -8.2999999999999996e-01 4.9969147543743748e+00 4.5301067719295505e+00 1.3289774242913964e+01 4 4 0
1023 444 1 4.1499999999999998e-01 4.1926727590285919e+00 4.1887746503846710e+00 1.1633148096987719e+01 -3 2 0
676 444 2 -8.2999999999999996e-01 7.9332628707796637e-01 8.6395463526176695e+00 1.0902919469714975e+01 3 -4 0
5600 444 1 4.1499999999999998e-01 3.4343305979173722e+00 8.6424614729657119e+00 9.9597607782130808e+00 10 0 0
3689 444 1 4.1499999999999998e-01 4.3152188263054301e+00 7.8651718510704240e+00 1.3196409427143342e+01 0 -3 0
3688 444 2 -8.2999999999999996e-01 3.9649358786394870e+00 7.7531598297541775e+00 1.4080144141132772e+01 0 -3 0
3690 444 1 4.1499999999999998e-01 4.6798387931445546e+00 8.0212793368973969e+00 1.4657429021858393e+01 0 -3 0
4417 444 2 -8.2999999999999996e-01 1.7836629776090800e+00 3.6237158645162957e+00 1.3524939161585177e+01 5 2 0
4419 444 1 4.1499999999999998e-01 1.7988439517458497e+00 4.5090006976366999e+00 1.3888631759425515e+01 5 2 0
4617 444 1 4.1499999999999998e-01 2.3368523729234760e+00 6.1221711925169613e+00 1.5713744278788894e+01 0 -4 0
4615 444 2 -8.2999999999999996e-01 2.2335446887034198e+00 6.0437058108893336e+00 1.4765375832940979e+01 0 -4 0
3736 444 2 -8.2999999999999996e-01 6.8284976002139750e+00 8.9987827232045401e+00 1.4358394024905662e+01 -6 -1 0
3737 444 1 4.1499999999999998e-01 6.5269896341206213e+00 9.9059959918640654e+00 1.4406247455705762e+01 -6 -1 0
4616 444 1 4.1499999999999998e-01 2.8460477668810489e+00 6.6840817385956175e+00 1.4403449686045237e+01 0 -4 0
4903 444 2 -8.2999999999999996e-01 5.7535810318839564e+00 1.0735942757304128e+01 1.0408490513239300e+01 -3 -5 0
4905 444 1 4.1499999999999998e-01 4.9819205401250830e+00 1.0396593503983278e+01 9.9550436809966936e+00 -3 -5 0
374 444 1 4.1499999999999998e-01 5.2647722498942526e+00 9.0237598244743946e+00 1.1229467599464989e+01 3 0 0
373 444 2 -8.2999999999999996e-01 5.1704581476678824e+00 8.1854936082218686e+00 1.1681846511067272e+01 3 0 0
3480 444 1 4.1499999999999998e-01 6.7510869762074934e+00 7.0381322598607818e+00 1.3068512881357169e+01 6 -5 0
2355 444 1 4.1499999999999998e-01 5.4961971301753136e+00 2.9393366103693594e+00 1.3102254490935366e+01 1 -1 0
2353 444 2 -8.2999999999999996e-01 5.5026386451361278e+00 1.9822042077305859e+00 1.3092875172926954e+01 1 -1 0
3479 444 1 4.1499999999999998e-01 7.4089649910466067e+00 5.8813818415556698e+00 1.2346695343601629e+01 6 -5 0
1756 444 2 -8.2999999999999996e-01 6.6303459144751598e+00 5.2614436763913908e+00 9.9954756112488266e+00 1 -1 0
1757 444 1 4.1499999999999998e-01 7.0962258645510907e+00 4.4260690432671987e+00 9.9589092473533150e+00 1 -1 0
3738 444 1 4.1499999999999998e-01 7.6021912519347525e+00 9.0323814105574325e+00 1.3795808794416656e+01 -6 -1 0
4454 444 1 4.1499999999999998e-01 2.2337805680317855e+00 1.5246460987849464e+00 1.6060941576631276e+01 -2 0 0
5844 444 1 4.1499999999999998e-01 2.4720982863555037e+00 1.0574825441797344e+01 1.3930931651001176e+01 1 -1 0
4904 444 1 4.1499999999999998e-01 5.5261102425390085e+00 1.1640017560985561e+01 1.0625602803296365e+01 -3 -5 0
5843 444 1 4.1499999999999998e-01 2.9069514486414194e+00 9.2759200846809069e+00 1.4575635703566361e+01 1 -1 0
5842 444 2 -8.2999999999999996e-01 2.5736226914455855e+00 1.0149103008607245e+01 1.4782216144832693e+01 1 -1 0
5487 444 1 4.1499999999999998e-01 7.4742514072030168e+00 7.6581124440263277e+00 1.0739621169071071e+01 -3 -1 0
2256 444 1 4.1499999999999998e-01 6.9275420980718874e+00 2.3350877145758826e+00 1.0460243939342229e+01 -4 0 0
5546 444 1 4.1499999999999998e-01 6.2834052191121108e+00 8.2886311877086183e-01 1.4461731995819536e+01 -2 1 0
1935 444 1 4.1499999999999998e-01 4.1270760611541348e+00 1.2723481903250184e+00 1.4105794163078583e+01 -1 -1 0
1934 444 1 4.1499999999999998e-01 2.8595249167076626e+00 2.0761112082223150e+00 1.4303719446799102e+01 -1 -1 0
4094 444 1 4.1499999999999998e-01 4.7108110198913417e-01 5.1009461502172133e+00 1.0934270075419942e+01 7 1 0
4093 444 2 -8.2999999999999996e-01 5.8380001702372675e-01 5.9455469403629264e+00 1.0498178153985045e+01 7 1 0
5144 444 1 4.1499999999999998e-01 2.6433372538945781e+00 1.7668845443873284e+00 1.0510878302626629e+01 -3 -4 0
1933 444 2 -8.2999999999999996e-01 3.2600073743704052e+00 1.2313508936491417e+00 1.4509208365798314e+01 -1 -1 0
2222 444 1 4.1499999999999998e-01 2.2000478999974500e+00 1.0937749330884538e+01 1.1563014230507745e+01 2 1 0
2354 444 1 4.1499999999999998e-01 5.5791575868942713e+00 1.7517883566236514e+00 1.2166978056005251e+01 1 -1 0
677 444 1 4.1499999999999998e-01 5.3056637066045798e-01 7.7238087598269036e+00 1.0810108906897817e+01 3 -4 0
1493 444 1 4.1499999999999998e-01 1.0046095150142149e+00 1.0806125328403875e+01 1.6124000441806302e+01 0 -3 0
4707 444 1 4.1499999999999998e-01 6.9864405330478627e+00 4.9361871170243052e+00 1.5855613205340010e+01 -3 2 0
3176 444 1 4.1499999999999998e-01 4.5981519052102158e+00 8.0526546908252428e-01 1.0625832196115139e+01 -2 0 0
678 444 1 4.1499999999999998e-01 1.1627484300348812e-01 9.0285609403766394e+00 1.1456545007982168e+01 3 -4 0
5545 444 2 -8.2999999999999996e-01 6.4797354809933312e+00 5.1394380206858908e-02 1.4984444968321224e+01 -2 1 0
3177 444 1 4.1499999999999998e-01 6.0563711367295294e+00 4.3335140828562208e-01 1.0790671637988122e+01 -2 0 0
3175 444 2 -8.2999999999999996e-01 5.4807392645743214e+00 1.1751627696316744e+00 1.0604672235485681e+01 -2 0 0
2221 444 2 -8.2999999999999996e-01 2.1446105081489102e+00 1.1326825873510090e+01 1.2435813338088670e+01 2 1 0
1532 444 1 4.1499999999999998e-01 4.2629094704405684e-01 1.0885938589309568e+01 9.6682213968936548e+00 -2 1 0
1531 444 2 -8.2999999999999996e-01 3.0810037369995419e-01 1.1689536755605808e+01 1.0174672852127779e+01 -2 1 0
4987 444 2 -8.2999999999999996e-01 6.5753929867177519e+00 1.1718885017415944e+01 1.4517442539420871e+01 1 2 0
5478 444 1 4.1499999999999998e-01 7.8373080687427912e+00 1.0617627150628756e+01 1.0688633879884097e+01 -2 4 0
5476 444 2 -8.2999999999999996e-01 8.6514323119311101e+00 1.1065362429849731e+01 1.0918778844116503e+01 -2 4 0
2254 444 2 -8.2999999999999996e-01 7.7018536623078768e+00 2.8713486480669776e+00 1.0289662512499962e+01 -4 0 0
5486 444 1 4.1499999999999998e-01 8.4788652621321710e+00 6.5390631629961966e+00 1.0565336195276481e+01 -3 -1 0
4908 444 1 4.1499999999999998e-01 9.7997787521756230e+00 7.7800497187708650e+00 1.2561995537622042e+01 5 -2 0
4906 444 2 -8.2999999999999996e-01 1.0336133901750665e+01 6.9931189996252439e+00 1.2658413751219360e+01 5 -2 0
4907 444 1 4.1499999999999998e-01 9.8591247407927423e+00 6.3171086946211030e+00 1.2177056927782944e+01 5 -2 0
452 444 1 4.1499999999999998e-01 1.0886968378442974e+01 2.5805470475281158e+00 1.3179746124328121e+01 -3 7 0
3785 444 1 4.1499999999999998e-01 8.7426461382745906e+00 4.0595932039291363e+00 1.0818994295566410e+01 6 -3 0
3786 444 1 4.1499999999999998e-01 1.0215203295567765e+01 4.0743107228348077e+00 1.1170069970102423e+01 6 -3 0
5485 444 2 -8.2999999999999996e-01 8.4121835903311979e+00 7.4903405879037424e+00 1.0648144307031256e+01 -3 -1 0
4010 444 1 4.1499999999999998e-01 9.7897956285286245e+00 9.5108317359187371e+00 1.3641069341220392e+01 1 6 0
655 444 2 -8.2999999999999996e-01 1.1557939493243044e+01 2.9658837286572211e+00 1.1296434187804975e+01 -1 1 0
2518 444 2 -8.2999999999999996e-01 1.3753743696648066e+01 2.2511974981151774e+00 1.3021091401812315e+01 0 -1 0
4896 444 1 4.1499999999999998e-01 1.0418892707722632e+01 5.9625824985810372e-01 1.0114785199874435e+01 2 -2 0
5865 444 1 4.1499999999999998e-01 1.4148618726181674e+01 7.5448972826505498e+00 1.0336989327663288e+01 3 6 0
5863 444 2 -8.2999999999999996e-01 1.4416635233467812e+01 8.4628173560762239e+00 1.0294295812829642e+01 3 6 0
3784 444 2 -8.2999999999999996e-01 9.4829106453610041e+00 4.6513690031869981e+00 1.0953314048132032e+01 6 -3 0
2962 444 2 -8.2999999999999996e-01 1.3585952850462348e+01 8.6592130494465103e+00 1.3385195475277705e+01 3 4 0
1327 444 2 -8.2999999999999996e-01 1.0088223575667053e+01 9.2902067917124782e+00 9.8307664487525894e+00 2 2 0
4651 444 2 -8.2999999999999996e-01 1.1604007514176788e+01 6.2120086035643194e+00 1.0207410105592659e+01 -2 -1 0
1329 444 1 4.1499999999999998e-01 9.6003181131266544e+00 1.0055680225310144e+01 1.0134461426980788e+01 2 2 0
2964 444 1 4.1499999999999998e-01 1.4127583094620048e+01 9.4484045859023826e+00 1.3378395438249029e+01 3 4 0
4652 444 1 4.1499999999999998e-01 1.0812097339527634e+01 5.7052031307479130e+00 1.0387018006241178e+01 -2 -1 0
1328 444 1 4.1499999999999998e-01 9.5912161006480172e+00 8.5420508932547694e+00 1.0161641421152755e+01 2 2 0
4653 444 1 4.1499999999999998e-01 1.1335261241321394e+01 7.1241198534787360e+00 1.0317231098053671e+01 -2 -1 0
2519 444 1 4.1499999999999998e-01 1.3356637691433120e+01 2.1582536560506482e+00 1.3887059177141811e+01 0 -1 0
3284 444 1 4.1499999999999998e-01 1.3161451969223316e+01 5.7730845526240566e+00 1.0259337622281331e+01 -2 -2 0
2520 444 1 4.1499999999999998e-01 1.4457746649847589e+01 1.6027632720483938e+00 1.3009058764544632e+01 0 -1 0
4011 444 1 4.1499999999999998e-01 8.9970678931213062e+00 1.0087148845367283e+01 1.2487233747393008e+01 1 6 0
4009 444 2 -8.2999999999999996e-01 9.1098631546249784e+00 9.2897711917062171e+00 1.3004629216873964e+01 1 6 0
453 444 1 4.1499999999999998e-01 1.0281377110740715e+01 1.6197412716590744e+00 1.4180749772013877e+01 -3 7 0
451 444 2 -8.2999999999999996e-01 1.0775715359111633e+01 2.4371283159876889e+00 1.4119579216609624e+01 -3 7 0
656 444 1 4.1499999999999998e-01 1.1595423985839112e+01 2.2732316880513777e+00 1.0636842987254568e+01 -1 1 0
5357 444 1 4.1499999999999998e-01 1.3145905085737544e+01 5.2340335901235173e+00 1.3573314712264166e+01 1 1 0
657 444 1 4.1499999999999998e-01 1.2453143585122953e+01 3.0288946624836299e+00 1.1629408413340716e+01 -1 1 0
3477 444 1 4.1499999999999998e-01 1.1133092791486433e+01 4.7609375784307399e+00 1.4741190855836038e+01 2 -4 0
3475 444 2 -8.2999999999999996e-01 1.1580325314827247e+01 5.5693836892684647e+00 1.4490930655273823e+01 2 -4 0
3476 444 1 4.1499999999999998e-01 1.0955998677874200e+01 6.0238080048781706e+00 1.3925290644390001e+01 2 -4 0
5358 444 1 4.1499999999999998e-01 1.3898033684822591e+01 3.9976662981396860e+00 1.3128798500930992e+01 1 1 0
5356 444 2 -8.2999999999999996e-01 1.3879037940143240e+01 4.9493238003005580e+00 1.3027705718270763e+01 1 1 0
2891 444 1 4.1499999999999998e-01 9.1445132944821346e+00 4.9912158622619476e+00 1.6235677238026064e+01 -1 -1 0
152 444 1 4.1499999999999998e-01 1.1842378324871220e+01 1.0120616573785338e+01 1.0158499830176831e+01 0 0 0
2963 444 1 4.1499999999999998e-01 1.2686603619561184e+01 8.9850678452263253e+00 1.3350241272552035e+01 3 4 0
153 444 1 4.1499999999999998e-01 1.3310284855390922e+01 9.7620896947108626e+00 1.0065740253217246e+01 0 0 0
151 444 2 -8.2999999999999996e-01 1.2719390205920968e+01 1.0499172288992774e+01 1.0219963099750228e+01 0 0 0
2267 444 1 4.1499999999999998e-01 1.4629387418717151e+01 1.1061147376469233e+01 1.2213353143316018e+01 -3 1 0
5670 444 1 4.1499999999999998e-01 1.0714241913556986e+01 9.4682037776434314e+00 1.5087013983953870e+01 -4 0 0
647 444 1 4.1499999999999998e-01 1.2880806587805649e+01 6.4136952893443420e+00 1.5401109783170472e+01 0 -2 0
5668 444 2 -8.2999999999999996e-01 1.1051357564979178e+01 1.0139084611048411e+01 1.4493293585470809e+01 -4 0 0
646 444 2 -8.2999999999999996e-01 1.3683646112667486e+01 6.6364481024960602e+00 1.5872344125674276e+01 0 -2 0
2504 444 1 4.1499999999999998e-01 8.9855346431807774e+00 2.8411606925038067e+00 1.5151841224401039e+01 1 1 0
5669 444 1 4.1499999999999998e-01 1.0983677815758178e+01 1.0954748347119585e+01 1.4989624141275927e+01 -4 0 0
171 444 1 4.1499999999999998e-01 1.5133173178134506e+01 8.0146447758952206e+00 1.3591430563574908e+01 -1 0 0
1042 444 2 -8.2999999999999996e-01 1.2187995508404999e+01 4.3081447902161851e-01 1.0266818818854576e+01 -4 6 0
1043 444 1 4.1499999999999998e-01 1.3092094025371143e+01 7.0289422691188208e-01 1.0109305718095953e+01 -4 6 0
2255 444 1 4.1499999999999998e-01 8.4071617509621728e+00 2.2384246633347300e+00 1.0154829773860383e+01 -4 0 0
188 444 1 4.1499999999999998e-01 1.2176246111794603e+01 2.0729807067901014e+00 1.5262890762394864e+01 4 4 0
187 444 2 -8.2999999999999996e-01 1.3078084563615082e+01 2.0029685865199087e+00 1.5575968381894265e+01 4 4 0
1139 444 1 4.1499999999999998e-01 1.5145075040992539e+01 4.6726148436102422e-01 1.1232256408748521e+01 1 -3 0
2503 444 2 -8.2999999999999996e-01 8.7171061068157858e+00 3.4036981719026156e+00 1.5878291476789489e+01 1 1 0
3928 444 2 -8.2999999999999996e-01 9.5529812871123756e+00 8.4960141409956158e+00 1.6051155115125248e+01 7 4 0
3930 444 1 4.1499999999999998e-01 9.3494246277076982e+00 7.5781122222850046e+00 1.5871562501313546e+01 7 4 0
4894 444 2 -8.2999999999999996e-01 9.4869347018321726e+00 7.9832333726902593e-01 1.0197592979966821e+01 2 -2 0
2423 444 1 4.1499999999999998e-01 8.4290688284843220e+00 1.5648841361082930e-01 1.4725208246986142e+01 0 -4 0
4004 444 1 4.1499999999999998e-01 1.1841314482879254e+01 1.1273860644984593e+01 1.3058867886704286e+01 2 -1 0
3283 444 2 -8.2999999999999996e-01 1.4076669161473621e+01 5.7508598647559896e+00 1.0538829108300625e+01 -2 -2 0
2422 444 2 -8.2999999999999996e-01 9.3722323299851400e+00 3.1641109485139790e-01 1.4758371180493445e+01 0 -4 0
3285 444 1 4.1499999999999998e-01 1.4039462409420739e+01 5.5042194101919746e+00 1.1462959019217992e+01 -2 -2 0
648 444 1 4.1499999999999998e-01 1.4286235047534438e+01 6.9359736847971751e+00 1.5191607124200274e+01 0 -2 0
1138 444 2 -8.2999999999999996e-01 1.5013070032508560e+01 7.5864710646301281e-01 1.0330091663313430e+01 1 -3 0
4005 444 1 4.1499999999999998e-01 1.2648221517803677e+01 1.1370558864523144e+01 1.1781587075743976e+01 2 -1 0
2266 444 2 -8.2999999999999996e-01 1.5224072736932486e+01 1.0839863929692035e+01 1.2930022658276462e+01 -3 1 0
4895 444 1 4.1499999999999998e-01 9.1226358986480882e+00 5.6836519456156621e-02 1.0681034569081000e+01 2 -2 0
738 444 1 4.1499999999999998e-01 4.0535646326295360e+00 1.0313352992389907e+01 1.6821759359387702e+01 1 -1 0
3719 444 1 4.1499999999999998e-01 1.3212951159272990e-01 4.3396964185796820e+00 1.7159389845055365e+01 -1 -4 0
3070 444 2 -8.2999999999999996e-01 1.3421968790068790e+00 1.5099722345885036e-01 2.2480591436638406e+01 0 -2 0
735 444 1 4.1499999999999998e-01 1.0649492819534674e+00 3.8898638465769380e+00 2.3698731058002323e+01 -2 0 0
5348 444 1 4.1499999999999998e-01 3.4301601669892583e+00 2.9381119957961550e+00 2.1631654894212751e+01 -1 4 0
5645 444 1 4.1499999999999998e-01 1.3210146009503825e+00 8.8813826947790435e+00 2.0757048841593644e+01 -1 0 0
4453 444 2 -8.2999999999999996e-01 1.9445784054660076e+00 1.5505420954320090e+00 1.6973040088661769e+01 -2 0 0
4455 444 1 4.1499999999999998e-01 1.9455238037046034e+00 2.4807413752192096e+00 1.7198784093803432e+01 -2 0 0
762 444 1 4.1499999999999998e-01 4.6133360773758421e+00 3.1179092144114651e+00 1.7438905710942130e+01 3 -6 0
4469 444 1 4.1499999999999998e-01 3.0084694196590109e+00 1.0283658324128931e+01 2.2039226009853891e+01 4 -5 0
4705 444 2 -8.2999999999999996e-01 6.5034167723491461e+00 5.4620415241647366e+00 1.6493106826834875e+01 -3 2 0
4706 444 1 4.1499999999999998e-01 7.1116323288021608e+00 6.1589028759506670e+00 1.6739461928288033e+01 -3 2 0
3693 444 1 4.1499999999999998e-01 3.8716483181356609e+00 9.0847620773696249e+00 1.8256673555089968e+01 0 6 0
761 444 1 4.1499999999999998e-01 5.0557522341804919e+00 4.4941360363292908e+00 1.6989279560047287e+01 3 -6 0
3888 444 1 4.1499999999999998e-01 4.8801282903353362e+00 4.6587860409562634e+00 2.1245769229918402e+01 2 -3 0
3887 444 1 4.1499999999999998e-01 3.8029197850508241e+00 5.3638046705745470e+00 2.2042302838987258e+01 2 -3 0
1429 444 2 -8.2999999999999996e-01 2.6269018734030452e+00 6.1128082024826247e+00 1.7411667706723911e+01 0 -1 0
760 444 2 -8.2999999999999996e-01 4.4638745697561539e+00 4.0501334777709506e+00 1.7596548761062184e+01 3 -6 0
5644 444 2 -8.2999999999999996e-01 2.2402197581123953e+00 8.7676653611361566e+00 2.0998634096661426e+01 -1 0 0
4968 444 1 4.1499999999999998e-01 7.3972652266821646e+00 6.0486704178023283e+00 2.2815853816740677e+01 -3 -1 0
5496 444 1 4.1499999999999998e-01 5.1840251767316863e+00 4.2155734854430085e+00 1.9171901480692227e+01 -1 6 0
3886 444 2 -8.2999999999999996e-01 4.2594857356937714e+00 4.5263162168879152e+00 2.1962348987958354e+01 2 -3 0
736 444 2 -8.2999999999999996e-01 4.4842568927222297e+00 1.0400614813846900e+01 1.7672124976079584e+01 1 -1 0
3083 444 1 4.1499999999999998e-01 6.8643467438905335e+00 9.4019548823704593e+00 2.0199657602424345e+01 1 -6 0
1430 444 1 4.1499999999999998e-01 2.7309932985493437e+00 6.9686901177572640e+00 1.7827437181323837e+01 0 -1 0
3082 444 2 -8.2999999999999996e-01 6.1498482697450907e+00 8.7756690889231059e+00 2.0315804001378087e+01 1 -6 0
1431 444 1 4.1499999999999998e-01 3.4537364364200491e+00 5.6614013137301891e+00 1.7581400768838769e+01 0 -1 0
737 444 1 4.1499999999999998e-01 5.2999722521083159e+00 1.0863796174844515e+01 1.7481589681216420e+01 1 -1 0
2191 444 2 -8.2999999999999996e-01 3.2725344209144978e+00 6.9072330382148426e+00 2.2729166104845444e+01 3 5 0
5214 444 1 4.1499999999999998e-01 6.5309884002473053e+00 5.6524906695550499e+00 2.0601501824107562e+01 0 -1 0
3691 444 2 -8.2999999999999996e-01 3.7740447926389140e+00 8.2808727299462603e+00 1.8767033710165954e+01 0 6 0