LAMMPS data file via write_data, version 11 Aug 2017, timestep = 500000

7168 atoms
4 atom types
4000 bonds
1 bond types
2000 angles
1 angle types

0.0000000000000000e+00 4.5679949999999998e+01 xlo xhi
0.0000000000000000e+00 4.6885919999999999e+01 ylo yhi
0.0000000000000000e+00 6.5000000000000000e+01 zlo zhi

Masses

1 1.0079
2 15.9994
3 18.9984
4 107.868

Bond Coeffs # harmonic

1 450 0.9572

Angle Coeffs # harmonic

1 55 104.52

Atoms # full

6017 444 4 0.0000000000000000e+00 1.6907200000000000e+00 0.0000000000000000e+00 0.0000000000000000e+00 0 0 0
6018 444 4 0.0000000000000000e+00 4.2285000000000004e+00 1.4651900000000000e+00 0.0000000000000000e+00 0 0 0
6019 444 4 5.5559999999999998e-02 1.6907700000000001e+00 0.0000000000000000e+00 7.1781499999999996e+00 0 0 0
6020 444 4 5.5559999999999998e-02 4.2285500000000003e+00 1.4651900000000000e+00 7.1781499999999996e+00 0 0 0
6021 444 4 0.0000000000000000e+00 2.5366499999999998e+00 1.4651900000000000e+00 2.3926400000000001e+00 0 0 0
6022 444 4 0.0000000000000000e+00 5.0744199999999999e+00 0.0000000000000000e+00 2.3926400000000001e+00 0 0 0
6023 444 4 0.0000000000000000e+00 8.4509000000000001e-01 1.4651900000000000e+00 4.7824200000000001e+00 0 0 0
6024 444 4 0.0000000000000000e+00 3.3828600000000000e+00 0.0000000000000000e+00 4.7824499999999999e+00 0 0 0
6025 444 4 0.0000000000000000e+00 1.6907200000000000e+00 2.9303699999999999e+00 0.0000000000000000e+00 0 0 0
6026 444 4 0.0000000000000000e+00 4.2285000000000004e+00 4.3955599999999997e+00 0.0000000000000000e+00 0 0 0
6027 444 4 5.5559999999999998e-02 1.6907700000000001e+00 2.9303699999999999e+00 7.1781899999999998e+00 0 0 0
6028 444 4 5.5559999999999998e-02 4.2285500000000003e+00 4.3955599999999997e+00 7.1781600000000001e+00 0 0 0
6029 444 4 0.0000000000000000e+00 2.5366499999999998e+00 4.3955599999999997e+00 2.3926400000000001e+00 0 0 0
6030 444 4 0.0000000000000000e+00 5.0744199999999999e+00 2.9303699999999999e+00 2.3926400000000001e+00 0 0 0
6031 444 4 0.0000000000000000e+00 8.4509000000000001e-01 4.3955599999999997e+00 4.7824499999999999e+00 0 0 0
6032 444 4 0.0000000000000000e+00 3.3828700000000000e+00 2.9303699999999999e+00 4.7824400000000002e+00 0 0 0
6033 444 4 0.0000000000000000e+00 1.6907200000000000e+00 5.8607399999999998e+00 0.0000000000000000e+00 0 0 0
6034 444 4 0.0000000000000000e+00 4.2285000000000004e+00 7.3259299999999996e+00 0.0000000000000000e+00 0 0 0
6035 444 4 5.5559999999999998e-02 1.6907700000000001e+00 5.8607399999999998e+00 7.1781499999999996e+00 0 0 0
6036 444 4 5.5559999999999998e-02 4.2285500000000003e+00 7.3259299999999996e+00 7.1781499999999996e+00 0 0 0
6037 444 4 0.0000000000000000e+00 2.5366499999999998e+00 7.3259299999999996e+00 2.3926400000000001e+00 0 0 0
6038 444 4 0.0000000000000000e+00 5.0744199999999999e+00 5.8607399999999998e+00 2.3926400000000001e+00 0 0 0
6039 444 4 0.0000000000000000e+00 8.4509000000000001e-01 7.3259299999999996e+00 4.7824200000000001e+00 0 0 0
6040 444 4 0.0000000000000000e+00 3.3828600000000000e+00 5.8607399999999998e+00 4.7824499999999999e+00 0 0 0
6145 444 4 0.0000000000000000e+00 6.7662699999999996e+00 0.0000000000000000e+00 0.0000000000000000e+00 0 0 0
6147 444 4 5.5559999999999998e-02 6.7663200000000003e+00 0.0000000000000000e+00 7.1781499999999996e+00 0 0 0
6149 444 4 0.0000000000000000e+00 7.6121999999999996e+00 1.4651900000000000e+00 2.3926400000000001e+00 0 0 0
6151 444 4 0.0000000000000000e+00 5.9206399999999997e+00 1.4651900000000000e+00 4.7824200000000001e+00 0 0 0
6153 444 4 0.0000000000000000e+00 6.7662699999999996e+00 2.9303699999999999e+00 0.0000000000000000e+00 0 0 0
6155 444 4 5.5559999999999998e-02 6.7663200000000003e+00 2.9303699999999999e+00 7.1781899999999998e+00 0 0 0
6157 444 4 0.0000000000000000e+00 7.6121999999999996e+00 4.3955599999999997e+00 2.3926400000000001e+00 0 0 0
6159 444 4 0.0000000000000000e+00 5.9206399999999997e+00 4.3955599999999997e+00 4.7824499999999999e+00 0 0 0
6161 444 4 0.0000000000000000e+00 6.7662699999999996e+00 5.8607399999999998e+00 0.0000000000000000e+00 0 0 0
6163 444 4 5.5559999999999998e-02 6.7663200000000003e+00 5.8607399999999998e+00 7.1781499999999996e+00 0 0 0
6165 444 4 0.0000000000000000e+00 7.6121999999999996e+00 7.3259299999999996e+00 2.3926400000000001e+00 0 0 0
6167 444 4 0.0000000000000000e+00 5.9206399999999997e+00 7.3259299999999996e+00 4.7824200000000001e+00 0 0 0
6146 444 4 0.0000000000000000e+00 9.3040500000000002e+00 1.4651900000000000e+00 0.0000000000000000e+00 0 0 0
6148 444 4 5.5559999999999998e-02 9.3041000000000000e+00 1.4651900000000000e+00 7.1781499999999996e+00 0 0 0
6150 444 4 0.0000000000000000e+00 1.0149970000000000e+01 0.0000000000000000e+00 2.3926400000000001e+00 0 0 0
6152 444 4 0.0000000000000000e+00 8.4584100000000007e+00 0.0000000000000000e+00 4.7824499999999999e+00 0 0 0
6154 444 4 0.0000000000000000e+00 9.3040500000000002e+00 4.3955599999999997e+00 0.0000000000000000e+00 0 0 0
6156 444 4 5.5559999999999998e-02 9.3041000000000000e+00 4.3955599999999997e+00 7.1781600000000001e+00 0 0 0
6158 444 4 0.0000000000000000e+00 1.0149970000000000e+01 2.9303699999999999e+00 2.3926400000000001e+00 0 0 0
6160 444 4 0.0000000000000000e+00 8.4584200000000003e+00 2.9303699999999999e+00 4.7824400000000002e+00 0 0 0
6162 444 4 0.0000000000000000e+00 9.3040500000000002e+00 7.3259299999999996e+00 0.0000000000000000e+00 0 0 0
6164 444 4 5.5559999999999998e-02 9.3041000000000000e+00 7.3259299999999996e+00 7.1781499999999996e+00 0 0 0
6166 444 4 0.0000000000000000e+00 1.0149970000000000e+01 5.8607399999999998e+00 2.3926400000000001e+00 0 0 0
6168 444 4 0.0000000000000000e+00 8.4584100000000007e+00 5.8607399999999998e+00 4.7824499999999999e+00 0 0 0
6279 444 4 0.0000000000000000e+00 1.0996190000000000e+01 1.4651900000000000e+00 4.7824200000000001e+00 0 0 0
6287 444 4 0.0000000000000000e+00 1.0996190000000000e+01 4.3955599999999997e+00 4.7824499999999999e+00 0 0 0
6295 444 4 0.0000000000000000e+00 1.0996190000000000e+01 7.3259299999999996e+00 4.7824200000000001e+00 0 0 0
1714 444 2 -8.2999999999999996e-01 8.1374003841076199e+00 3.0831526446171131e+00 9.8845946092755490e+00 2 0 0
1716 444 1 4.1499999999999998e-01 7.2958094426259654e+00 2.6846420522641488e+00 9.6629061093182571e+00 2 0 0
225 444 1 4.1499999999999998e-01 5.8670713795050053e+00 4.7651708618759354e+00 9.7509958194667306e+00 -2 1 0
223 444 2 -8.2999999999999996e-01 5.3839695478349103e+00 5.5468602058158307e+00 1.0018962661933545e+01 -2 1 0
4394 444 1 4.1499999999999998e-01 4.2112066780308002e+00 5.0539424521302649e+00 1.3173894079583631e+01 2 -1 0
4395 444 1 4.1499999999999998e-01 5.0916705222308352e+00 5.4203975466544518e+00 1.1998143703896000e+01 2 -1 0
3919 444 2 -8.2999999999999996e-01 1.1071863640355387e+01 3.1227951889521970e+00 1.0322691096023902e+01 -5 1 0
4782 444 1 4.1499999999999998e-01 7.6527568618971733e+00 7.5978860413791898e+00 1.0322052391235498e+01 1 2 0
3920 444 1 4.1499999999999998e-01 1.0315082439845371e+01 3.2953308815548148e+00 9.7625612668174355e+00 -5 1 0
3253 444 2 -8.2999999999999996e-01 3.0042695673662174e+00 4.4146164120094822e+00 9.9607521416618692e+00 2 4 0
5230 444 2 -8.2999999999999996e-01 3.0463054164389765e+00 1.6076947514410154e+00 9.9622740360557689e+00 -2 0 0
224 444 1 4.1499999999999998e-01 4.5232473399109780e+00 5.2193218126800653e+00 1.0279937268391732e+01 -2 1 0
3255 444 1 4.1499999999999998e-01 3.2502490772708299e+00 3.4900825277647880e+00 9.9917940021909590e+00 2 4 0
4880 444 1 4.1499999999999998e-01 6.7879213625045889e+00 2.4518021933913174e+00 1.2848830884802306e+01 -3 1 0
3254 444 1 4.1499999999999998e-01 2.1205909103136795e+00 4.4402948924013375e+00 1.0327746454824265e+01 2 4 0
4073 444 1 4.1499999999999998e-01 1.0144192043722123e+01 5.6101465649591287e+00 1.3423081339184790e+01 -2 -4 0
5231 444 1 4.1499999999999998e-01 2.0901439410198970e+00 1.6350201804250577e+00 9.9270379648734082e+00 -2 0 0
4072 444 2 -8.2999999999999996e-01 1.0033322674696830e+01 6.2933695832517875e+00 1.2761911038117123e+01 -2 -4 0
4879 444 2 -8.2999999999999996e-01 5.8557360885606755e+00 2.2363862077088550e+00 1.2878127829371738e+01 -3 1 0
5232 444 1 4.1499999999999998e-01 3.2459993399161373e+00 8.0088325493013957e-01 1.0437047340205860e+01 -2 0 0
4881 444 1 4.1499999999999998e-01 5.4217512885245531e+00 3.0716571898189700e+00 1.3051942206005634e+01 -3 1 0
4393 444 2 -8.2999999999999996e-01 5.0924709069287628e+00 4.9313056138067557e+00 1.2820956030467801e+01 2 -1 0
4305 444 1 4.1499999999999998e-01 9.7127313267389930e+00 7.2845931282336656e+00 1.1055700932992469e+01 3 -4 0
168 444 1 4.1499999999999998e-01 2.0554166253945976e+00 5.4905074908358182e+00 1.3082422482741555e+01 5 -2 0
166 444 2 -8.2999999999999996e-01 2.8210149632465211e+00 6.0595812972040859e+00 1.3161454335661867e+01 5 -2 0
1011 444 1 4.1499999999999998e-01 3.0524197248534779e-01 6.7689497645984513e+00 9.8520571720327972e+00 3 2 0
4781 444 1 4.1499999999999998e-01 6.2390033148433810e+00 7.0777280546916019e+00 1.0171613863451052e+01 1 2 0
3683 444 1 4.1499999999999998e-01 6.6788223315879911e+00 5.2587639721117361e+00 1.3636787334178123e+01 2 0 0
4303 444 2 -8.2999999999999996e-01 9.3929071999871585e+00 7.4551283819014413e+00 1.0169776499186639e+01 3 -4 0
5698 444 2 -8.2999999999999996e-01 8.9500326627181970e+00 2.1496028510389755e+00 1.5726736029352129e+01 -1 2 0
167 444 1 4.1499999999999998e-01 2.7454862370569697e+00 6.6670551544201055e+00 1.2425585603961421e+01 5 -2 0
5699 444 1 4.1499999999999998e-01 8.2141029213941863e+00 2.7565536054314221e+00 1.5805798820696907e+01 -1 2 0
1691 444 1 4.1499999999999998e-01 1.0253556423592758e+00 3.2512601328007569e+00 1.3099844368881580e+01 3 0 0
3212 444 1 4.1499999999999998e-01 8.1805969176571605e+00 4.2340174389297731e+00 1.3279503799549937e+01 3 2 0
3682 444 2 -8.2999999999999996e-01 7.5379916840001888e+00 5.4439725607178007e+00 1.4015941026260940e+01 2 0 0
4074 444 1 4.1499999999999998e-01 9.2146050402132325e+00 6.7279410582115915e+00 1.3000827369693823e+01 -2 -4 0
1751 444 1 4.1499999999999998e-01 5.3442955928529976e+00 6.1730316946516939e-01 1.3756921978157983e+01 2 2 0
1692 444 1 4.1499999999999998e-01 1.2838750803071364e+00 2.7391142722445614e+00 1.4500833018879563e+01 3 0 0
3684 444 1 4.1499999999999998e-01 7.4431651907926915e+00 5.2260039460231829e+00 1.4943156981057781e+01 2 0 0
4077 444 1 4.1499999999999998e-01 7.9845578164704465e+00 6.8871823307616182e+00 1.5417562066125495e+01 4 2 0
3129 444 1 4.1499999999999998e-01 4.6856344493835795e+00 2.1835759919445819e+00 9.9219314015315909e+00 -1 0 0
3211 444 2 -8.2999999999999996e-01 8.2518302955376583e+00 3.4476869820333693e+00 1.2738355027832329e+01 3 2 0
3901 444 2 -8.2999999999999996e-01 1.0736228239452947e+01 1.0369271074571258e+00 1.3829014239026186e+01 -3 -2 0
1921 444 2 -8.2999999999999996e-01 2.8335715910174692e+00 7.4515551636102151e+00 1.0968507126427637e+01 1 3 0
5769 444 1 4.1499999999999998e-01 9.4976294101462955e+00 5.3429441764859442e+00 1.5809406998310642e+01 -1 0 0
5685 444 1 4.1499999999999998e-01 5.1375864089388523e-01 9.3953104834313728e-01 1.3257623759997069e+01 -1 1 0
3412 444 2 -8.2999999999999996e-01 9.2217277140562306e+00 5.9107133254674094e-01 1.0079429492987352e+01 1 3 0
295 444 2 -8.2999999999999996e-01 1.7844161263497194e-01 5.0440287494413960e+00 1.2470840851557908e+01 -1 -1 0
3127 444 2 -8.2999999999999996e-01 5.5292129939490726e+00 2.4764375036880586e+00 1.0266661941016032e+01 -1 0 0
3413 444 1 4.1499999999999998e-01 9.1069736551693126e+00 1.5365397601003723e+00 9.9837574024642279e+00 1 3 0
1715 444 1 4.1499999999999998e-01 8.0014639993087489e+00 3.4640418833726354e+00 1.0752163929814776e+01 2 0 0
3040 444 2 -8.2999999999999996e-01 3.8794898336473493e+00 4.1907567500849141e-01 1.6108504785902859e+01 0 -2 0
5767 444 2 -8.2999999999999996e-01 1.0114716455788200e+01 4.6736122404456522e+00 1.5513720550900718e+01 -1 0 0
4075 444 2 -8.2999999999999996e-01 8.4953272660210555e+00 7.0328607938293946e+00 1.6213881238234979e+01 4 2 0
1690 444 2 -8.2999999999999996e-01 1.2266090665917635e+00 2.4534996087440297e+00 1.3589034441347568e+01 3 0 0
718 444 2 -8.2999999999999996e-01 1.1300369854700909e+00 3.6197949541835253e+00 1.5881304371889723e+01 1 2 0
1923 444 1 4.1499999999999998e-01 3.5703221949710202e+00 7.2661777329582531e+00 1.0386213708667578e+01 1 3 0
3463 444 2 -8.2999999999999996e-01 4.0251086768349126e-01 2.3163505554844370e+00 9.9854268688749013e+00 3 -2 0
3128 444 1 4.1499999999999998e-01 5.5069347286333867e+00 2.2350063843821584e+00 1.1192645957048660e+01 -1 0 0
5459 444 1 4.1499999999999998e-01 1.1000985346732486e+01 3.9751769214053030e+00 1.4073360561036090e+01 -1 3 0
3902 444 1 4.1499999999999998e-01 9.9821012300525069e+00 1.2683274200507655e+00 1.4371212621691921e+01 -3 -2 0
3921 444 1 4.1499999999999998e-01 1.1355055419794313e+01 3.9885317027147247e+00 1.0616858636067054e+01 -5 1 0
974 444 1 4.1499999999999998e-01 3.1709376796104225e+00 7.0134938408668015e+00 1.4355418965269505e+01 3 1 0
3041 444 1 4.1499999999999998e-01 4.2389446856865343e+00 1.9277365161221788e-01 1.5250710271339354e+01 0 -2 0
4780 444 2 -8.2999999999999996e-01 6.7494045832200191e+00 7.7739931189256595e+00 1.0585059570100043e+01 1 2 0
5768 444 1 4.1499999999999998e-01 9.6950718609009439e+00 3.8435816799852924e+00 1.5739950451646870e+01 -1 0 0
3903 444 1 4.1499999999999998e-01 1.1215141382659493e+01 3.9029496251912260e-01 1.4347417378413668e+01 -3 -2 0
3213 444 1 4.1499999999999998e-01 8.7950095945077891e+00 2.8506578922305530e+00 1.3252888076211120e+01 3 2 0
973 444 2 -8.2999999999999996e-01 3.2846044527309428e+00 7.6695174107967956e+00 1.5043128779767221e+01 3 1 0
1922 444 1 4.1499999999999998e-01 2.1311838496856805e+00 7.7360394191610204e+00 1.0383740236443732e+01 1 3 0
3414 444 1 4.1499999999999998e-01 1.0108102595211832e+01 4.2330306249563188e-01 9.7593899350850535e+00 1 3 0
297 444 1 4.1499999999999998e-01 1.6421298929290959e-01 5.2959023385393218e+00 1.1547483332209243e+01 -1 -1 0
5683 444 2 -8.2999999999999996e-01 2.5330906823422322e-01 5.5906124186914999e-02 1.2997614388261756e+01 -1 1 0
1427 444 1 4.1499999999999998e-01 1.0069165398946287e+00 8.9317030559713328e-01 1.6965991515421358e+01 2 0 0
5452 444 2 -8.2999999999999996e-01 1.0930511309915252e+01 1.7152653318748536e+00 1.8371888189866713e+01 1 2 0
240 444 1 4.1499999999999998e-01 2.6860977118724105e+00 7.0169423078922168e+00 2.3483898504569975e+01 1 2 0
5700 444 1 4.1499999999999998e-01 8.7241359976256554e+00 1.4217799089479277e+00 1.6305939586172865e+01 -1 2 0
880 444 2 -8.2999999999999996e-01 1.8793772472013099e+00 4.9566909291325362e-01 2.2604781769859375e+01 -2 1 0
881 444 1 4.1499999999999998e-01 1.0793682679931500e+00 7.6270813866965237e-01 2.3057449882266720e+01 -2 1 0
1428 444 1 4.1499999999999998e-01 2.2959749425736846e+00 1.7402409893958370e-01 1.6629758230747051e+01 2 0 0
3446 444 1 4.1499999999999998e-01 4.1799812609281002e+00 2.0941925658102796e+00 1.7216065966346584e+01 1 1 0
2978 444 1 4.1499999999999998e-01 1.0866089445139021e+01 3.7669570982581395e+00 1.8243013090040787e+01 1 3 0
719 444 1 4.1499999999999998e-01 1.6560334293229950e+00 4.3178819833320015e+00 1.6271476165268872e+01 1 2 0
4856 444 1 4.1499999999999998e-01 9.4430308149421105e+00 2.4797711303076833e+00 2.0713533786210579e+01 -3 -2 0
2143 444 2 -8.2999999999999996e-01 1.6579208419120389e-01 2.1636602786625900e+00 1.7841767618619752e+01 -3 3 0
4857 444 1 4.1499999999999998e-01 9.3606734846178412e+00 1.7272038569309871e+00 1.9402520732741433e+01 -3 -2 0
720 444 1 4.1499999999999998e-01 6.7704355662782822e-01 3.2177733991958077e+00 1.6622524582193865e+01 1 2 0
1938 444 1 4.1499999999999998e-01 6.2736117387959327e+00 3.5241059391873821e+00 1.6622978001150070e+01 2 -2 0
2592 444 1 4.1499999999999998e-01 3.8472979138420125e+00 6.5783349692710420e+00 2.0485898192200285e+01 2 0 0
5734 444 2 -8.2999999999999996e-01 6.1126007670928688e+00 3.5414510589624575e+00 2.1305415215788774e+01 2 -2 0
4533 444 1 4.1499999999999998e-01 3.5795632068958581e+00 7.1825207598877627e+00 1.6923885666339924e+01 1 0 0
1447 444 2 -8.2999999999999996e-01 3.5256527954914789e+00 2.7942336879294318e+00 2.1845284306439325e+01 5 -4 0
4930 444 2 -8.2999999999999996e-01 8.1963246466254329e+00 5.0902272793015904e+00 1.8869137186517705e+01 0 0 0
1936 444 2 -8.2999999999999996e-01 7.0307385052246234e+00 4.0475846384709220e+00 1.6360373834101715e+01 2 -2 0
2590 444 2 -8.2999999999999996e-01 3.1890499826756891e+00 6.4933492632642604e+00 2.1175622000648264e+01 2 0 0
4931 444 1 4.1499999999999998e-01 8.5933294105474900e+00 5.9479043844647093e+00 1.8717448680530616e+01 0 0 0
3250 444 2 -8.2999999999999996e-01 5.9229206345869159e+00 1.4631859657448540e+00 1.9531110367720977e+01 2 2 0
4642 444 2 -8.2999999999999996e-01 2.3741582256940150e+00 4.8049891741806867e+00 1.8120762244298835e+01 -2 -1 0
3914 444 1 4.1499999999999998e-01 5.7132825139180570e+00 6.7611094416337840e+00 1.9156771501215797e+01 1 2 0
3913 444 2 -8.2999999999999996e-01 5.6856730328876521e+00 6.4000840239633892e+00 2.0042847330118821e+01 1 2 0
3915 444 1 4.1499999999999998e-01 6.2895132502550961e+00 5.6577804301434558e+00 2.0018466594830176e+01 1 2 0
4644 444 1 4.1499999999999998e-01 2.9301079367146117e+00 5.5665789789015667e+00 1.7956042019289175e+01 -2 -1 0
4643 444 1 4.1499999999999998e-01 2.9324256543004146e+00 4.0530427594211185e+00 1.7922909147209690e+01 -2 -1 0
3252 444 1 4.1499999999999998e-01 6.8520226230578940e+00 1.4187500445771155e+00 1.9757002263152135e+01 2 2 0
4532 444 1 4.1499999999999998e-01 4.2716999909880702e+00 7.6472863941933200e+00 1.8187544972756964e+01 1 0 0
4531 444 2 -8.2999999999999996e-01 3.9609064757220933e+00 6.8600349572777510e+00 1.7740471530402058e+01 1 0 0
907 444 2 -8.2999999999999996e-01 1.2587797724003018e+00 3.4866567174714120e+00 2.0186629350797158e+01 4 -1 0
909 444 1 4.1499999999999998e-01 1.6499760003957591e+00 4.0840235592727474e+00 1.9549173303026038e+01 4 -1 0
4932 444 1 4.1499999999999998e-01 8.9060839225280652e+00 4.5572272775317098e+00 1.9227445522755133e+01 0 0 0
4855 444 2 -8.2999999999999996e-01 8.8707966873399862e+00 1.9047451173493668e+00 2.0205473307850323e+01 -3 -2 0
2685 444 1 4.1499999999999998e-01 8.1131635434978355e-01 5.7420596884410848e+00 2.2071997277066540e+01 0 -1 0
3445 444 2 -8.2999999999999996e-01 4.6741196381927121e+00 2.8621905593441195e+00 1.7502838939512998e+01 1 1 0
5194 444 2 -8.2999999999999996e-01 9.9095201727279569e+00 7.4228613986826693e+00 1.8450657131828336e+01 -2 3 0
2142 444 1 4.1499999999999998e-01 1.0955009670247007e+01 4.7687443940788370e+00 2.1322765103014106e+01 -4 -4 0
5608 444 2 -8.2999999999999996e-01 8.5974832557158223e+00 3.5935712031563365e+00 2.2678644727668356e+01 -4 -4 0
2141 444 1 4.1499999999999998e-01 9.4454690479521748e+00 4.6544351763484704e+00 2.1312023249757662e+01 -4 -4 0
2140 444 2 -8.2999999999999996e-01 1.0206618696288094e+01 4.6823315980824072e+00 2.0732277721233643e+01 -4 -4 0
3447 444 1 4.1499999999999998e-01 5.0090244990662107e+00 2.6231081118059962e+00 1.8367079002798981e+01 1 1 0
2591 444 1 4.1499999999999998e-01 2.6730487358022685e+00 7.2972981627054532e+00 2.1115283567977450e+01 2 0 0
5610 444 1 4.1499999999999998e-01 7.9379018299478039e+00 3.4195713726230648e+00 2.3350141723773426e+01 -4 -4 0
5609 444 1 4.1499999999999998e-01 9.4258659440663237e+00 3.3367522162563610e+00 2.3083685481914500e+01 -4 -4 0
3710 444 1 4.1499999999999998e-01 5.0506020696944267e+00 4.9954103253077546e+00 2.2799135364265894e+01 0 -2 0
1937 444 1 4.1499999999999998e-01 7.1783015592973927e+00 4.6420043523930747e+00 1.7095983897285709e+01 2 -2 0
5196 444 1 4.1499999999999998e-01 9.5515190062170916e+00 7.1642920120584348e+00 1.7601416988324676e+01 -2 3 0
5736 444 1 4.1499999999999998e-01 6.9937761166863153e+00 3.4953104594553470e+00 2.1676405219401694e+01 2 -2 0
5735 444 1 4.1499999999999998e-01 6.1493967389570230e+00 2.9824208789104465e+00 2.0529294432308372e+01 2 -2 0
1448 444 1 4.1499999999999998e-01 3.3116232367303686e+00 3.3385838865974096e+00 2.2602982816385563e+01 5 -4 0
908 444 1 4.1499999999999998e-01 1.9458341314867720e+00 3.3477666358723233e+00 2.0838471115847330e+01 4 -1 0
1449 444 1 4.1499999999999998e-01 4.4752185709524541e+00 2.6824360002854681e+00 2.1890654704496185e+01 5 -4 0
3709 444 2 -8.2999999999999996e-01 4.3265277563044613e+00 5.4500423162526896e+00 2.3229551408796151e+01 0 -2 0
882 444 1 4.1499999999999998e-01 2.3392308986969663e+00 1.3159424774643311e+00 2.2426123290110414e+01 -2 1 0
2145 444 1 4.1499999999999998e-01 2.4971374054974205e-01 2.5864628771764555e+00 1.8696417909821225e+01 -3 3 0
3711 444 1 4.1499999999999998e-01 3.7325222533196496e+00 5.6843679709920591e+00 2.2516473037639091e+01 0 -2 0
3251 444 1 4.1499999999999998e-01 5.5234731163670325e+00 7.4027375286713104e-01 2.0014920087098005e+01 2 2 0
3088 444 2 -8.2999999999999996e-01 7.0855359164736882e+00 2.2860567455967336e+00 2.4321831616982990e+01 0 -2 0
1317 444 1 4.1499999999999998e-01 7.5676139442802102e+00 7.4930188325762739e+00 2.3595184834315639e+01 2 1 0
783 444 1 4.1499999999999998e-01 6.5880900902066157e+00 7.4627329195425718e+00 2.1453877253515167e+01 -2 3 0
1667 444 1 4.1499999999999998e-01 9.2793623486197987e+00 4.8726363994355498e-01 2.1047535356026348e+01 1 1 0
4807 444 2 -8.2999999999999996e-01 1.1153168260323531e+01 2.7135858908732864e+00 2.3576816357894884e+01 -3 1 0
1316 444 1 4.1499999999999998e-01 9.0073261914226528e+00 7.1223597383882664e+00 2.3881079261688711e+01 2 1 0
244 444 2 -8.2999999999999996e-01 2.4255516796879841e+00 3.3791375036130598e+00 2.4223321983738956e+01 -1 -1 0
5453 444 1 4.1499999999999998e-01 1.1251410449437770e+01 1.0570890556674390e+00 1.7755398496549802e+01 1 2 0
1315 444 2 -8.2999999999999996e-01 8.1217335624203990e+00 7.0485332415947539e+00 2.4236757777439234e+01 2 1 0
2979 444 1 4.1499999999999998e-01 1.0958750598879160e+01 4.9496416092573670e+00 1.9183526935951935e+01 1 3 0
2977 444 2 -8.2999999999999996e-01 1.1298357421835645e+01 4.6137466705484425e+00 1.8354024946939379e+01 1 3 0
1426 444 2 -8.2999999999999996e-01 1.3442696036833142e+00 7.7192030906406250e-02 1.6596389717246311e+01 2 0 0
1776 444 1 4.1499999999999998e-01 1.1099989234838976e+01 7.2745548612702313e+00 2.0348482055886951e+01 2 4 0
4435 444 2 -8.2999999999999996e-01 1.4819423256994384e+00 2.2460423613642111e+00 2.7383819613986010e+01 1 -2 0
1738 444 2 -8.2999999999999996e-01 4.7323521447115596e-01 5.1098016937915123e+00 2.5314394804073160e+01 -1 -2 0
3907 444 2 -8.2999999999999996e-01 7.2802246191625892e+00 4.1347476030064784e-01 3.0721918757362975e+01 -1 0 0
4436 444 1 4.1499999999999998e-01 1.0345550723764951e+00 1.4918323687730153e+00 2.7000095689266352e+01 1 -2 0
3689 444 1 4.1499999999999998e-01 4.9919812922068074e-01 6.8172165054194025e+00 3.0722232475105837e+01 1 3 0
5513 444 1 4.1499999999999998e-01 8.9465791769026453e+00 4.6655984948028353e+00 2.8202887784508334e+01 1 -1 0
5135 444 1 4.1499999999999998e-01 1.0783279967710797e+01 6.2589288100725797e+00 2.7367289874361941e+01 3 2 0
4438 444 2 -8.2999999999999996e-01 7.5421365138784013e+00 1.6255719426889503e-01 2.6114457111009976e+01 1 1 0
1140 444 1 4.1499999999999998e-01 7.0668912350427222e+00 1.3027900278969300e+00 2.7692115092044524e+01 0 -1 0
4437 444 1 4.1499999999999998e-01 7.7670098658153841e-01 2.7926535562686872e+00 2.7730349791294568e+01 1 -2 0
5136 444 1 4.1499999999999998e-01 1.0967986289827461e+01 7.7041482348978754e+00 2.6956048381003544e+01 3 2 0
3247 444 2 -8.2999999999999996e-01 4.8293291566700525e+00 9.6273570630276761e-01 3.1818542095184732e+01 1 -4 0
3430 444 2 -8.2999999999999996e-01 6.1007092670552838e+00 3.2357981296541891e+00 3.1851310306423546e+01 -1 4 0
5714 444 1 4.1499999999999998e-01 7.2557562620398350e+00 7.2748036305978587e+00 2.8888667276977245e+01 -2 3 0
5693 444 1 4.1499999999999998e-01 6.2620034064882313e-01 4.8944563369867016e+00 2.9208597110201151e+01 -3 0 0
4793 444 1 4.1499999999999998e-01 6.7437454582281013e+00 7.2254525622293286e+00 2.5893366737668142e+01 1 -1 0
2811 444 1 4.1499999999999998e-01 1.8779309138923441e+00 6.8670310586355656e+00 2.8140739159076681e+01 3 0 0
2318 444 1 4.1499999999999998e-01 3.4586781175523811e+00 5.7531908804426388e+00 3.2439179685695166e+01 3 1 0
5218 444 2 -8.2999999999999996e-01 8.2128678619764042e+00 5.2862069618662293e+00 3.1728915088176294e+01 -3 -1 0
5692 444 2 -8.2999999999999996e-01 3.7890806251578546e-01 4.4839098605600975e+00 2.8380026251473272e+01 -3 0 0
5468 444 1 4.1499999999999998e-01 3.6156335122051515e+00 1.5619036793992171e+00 2.9472851033407935e+01 0 2 0
5219 444 1 4.1499999999999998e-01 8.2264137313520553e+00 6.0737508054067844e+00 3.1185018930546491e+01 -3 -1 0
863 444 1 4.1499999999999998e-01 1.0202699916035142e+01 3.0269213429795405e+00 2.9832367412700101e+01 -3 4 0
3443 444 1 4.1499999999999998e-01 3.0408636555505253e+00 1.4587605355216662e+00 3.1878184219240005e+01 -1 1 0
5220 444 1 4.1499999999999998e-01 8.8612140050983186e+00 4.7068880500620240e+00 3.1328579561827670e+01 -3 -1 0
862 444 2 -8.2999999999999996e-01 1.0263727827346472e+01 3.9146280822487456e+00 3.0185192629808430e+01 -3 4 0
5467 444 2 -8.2999999999999996e-01 3.7198892525397134e+00 8.9125864594985527e-01 2.8797870627816163e+01 0 2 0
2319 444 1 4.1499999999999998e-01 2.5950836489628859e+00 5.4781906792192663e+00 3.1226548159183260e+01 3 1 0
3442 444 2 -8.2999999999999996e-01 2.2961017341413803e+00 1.8496312988501031e+00 3.1421257659474431e+01 -1 1 0
5040 444 1 4.1499999999999998e-01 6.2907113910488093e+00 7.3770573091905431e+00 3.0889536256569535e+01 5 -2 0
5514 444 1 4.1499999999999998e-01 8.9045519824834116e+00 5.4125351466509857e+00 2.6886751477983061e+01 1 -1 0
5694 444 1 4.1499999999999998e-01 7.1692529042402720e-01 5.0762666700778700e+00 2.7708394153108912e+01 -3 0 0
5469 444 1 4.1499999999999998e-01 3.4598302740575355e+00 1.3258122128180148e+00 2.7985611554520560e+01 0 2 0
598 444 2 -8.2999999999999996e-01 4.1797228384506973e+00 3.4610493962403255e+00 2.9902484995396676e+01 2 3 0
1397 444 1 4.1499999999999998e-01 2.8389309143648251e+00 3.4093765783232310e+00 2.7276292490185014e+01 -2 0 0
1396 444 2 -8.2999999999999996e-01 3.7572571049422190e+00 3.6771829167135923e+00 2.7310767757137043e+01 -2 0 0
1398 444 1 4.1499999999999998e-01 3.9426413161093459e+00 3.7790803310517194e+00 2.8244299448925680e+01 -2 0 0
3909 444 1 4.1499999999999998e-01 6.4976440721014193e+00 8.8175770096048300e-01 3.1012626272861500e+01 -1 0 0
246 444 1 4.1499999999999998e-01 2.4717590325975789e+00 2.8704320722075978e+00 2.5032837742113514e+01 -1 -1 0
3688 444 2 -8.2999999999999996e-01 1.1983815943444638e+00 6.3439570729312154e+00 3.0271233761531398e+01 1 3 0
3090 444 1 4.1499999999999998e-01 6.3266541544460786e+00 2.8158311322617506e+00 2.4566105850683307e+01 0 -2 0
245 444 1 4.1499999999999998e-01 1.8482153791280356e+00 4.1130657945923694e+00 2.4433713391906863e+01 -1 -1 0
5713 444 2 -8.2999999999999996e-01 7.1755939821127308e+00 6.6140074910469320e+00 2.9576529408596052e+01 -2 3 0
650 444 1 4.1499999999999998e-01 4.8782899413348693e+00 5.6095758683980392e+00 2.7111569147283323e+01 4 5 0
3089 444 1 4.1499999999999998e-01 7.0479356718522466e+00 1.5290381374473194e+00 2.4906418119380220e+01 0 -2 0
2321 444 1 4.1499999999999998e-01 6.7506379917942487e+00 4.6424003416002337e+00 2.7142735600175836e+01 4 -1 0
2809 444 2 -8.2999999999999996e-01 1.6593387260287713e+00 6.3569960987277581e+00 2.7360794528328022e+01 3 0 0
2322 444 1 4.1499999999999998e-01 6.7202095938368993e+00 3.5898153230850083e+00 2.8230409296450990e+01 4 -1 0
1893 444 1 4.1499999999999998e-01 4.6243134327947004e+00 3.8190254828177568e+00 2.5810224451120142e+01 -1 1 0
1891 444 2 -8.2999999999999996e-01 5.3312050301529954e+00 4.0562976941048738e+00 2.5210026142862134e+01 -1 1 0
1892 444 1 4.1499999999999998e-01 4.9070160997709236e+00 4.5914060045980891e+00 2.4539239514290106e+01 -1 1 0
3193 444 2 -8.2999999999999996e-01 7.7360737012453900e+00 5.0322143381843594e+00 2.5638031280243887e+01 2 -2 0
2810 444 1 4.1499999999999998e-01 2.4899922423930310e+00 6.2639021493143874e+00 2.6894339713341761e+01 3 0 0
651 444 1 4.1499999999999998e-01 5.5197863695941267e+00 6.9570025600669467e+00 2.7366166101963532e+01 4 5 0
649 444 2 -8.2999999999999996e-01 4.6789268660404302e+00 6.5007675057456229e+00 2.7398385947777854e+01 4 5 0
1139 444 1 4.1499999999999998e-01 6.1508745258547055e+00 1.5730142176438640e+00 2.8866758595458407e+01 0 -1 0
1138 444 2 -8.2999999999999996e-01 6.8999551690961827e+00 1.9336648227307258e+00 2.8392373389171482e+01 0 -1 0
2320 444 2 -8.2999999999999996e-01 6.5169176026024509e+00 4.5097904584697783e+00 2.8061441887061697e+01 4 -1 0
3195 444 1 4.1499999999999998e-01 6.8541169423720278e+00 4.7297647786665618e+00 2.5421448003523878e+01 2 -2 0
3194 444 1 4.1499999999999998e-01 7.9802103380394369e+00 5.6020735263432409e+00 2.4908723617046522e+01 2 -2 0
1761 444 1 4.1499999999999998e-01 9.9016718866314601e+00 1.2579355862420063e+00 2.8530272228250766e+01 -1 -1 0
5302 444 2 -8.2999999999999996e-01 4.3618579162151339e-01 6.0164244137032419e-02 3.1429987588800856e+01 -3 -2 0
3690 444 1 4.1499999999999998e-01 1.8649002760378515e+00 7.0086793158336427e+00 3.0097656788890788e+01 1 3 0
1759 444 2 -8.2999999999999996e-01 1.0239727116269751e+01 1.4037927564219383e+00 2.9413831174614394e+01 -1 -1 0
5715 444 1 4.1499999999999998e-01 6.7789813583573464e+00 5.8600935095128204e+00 2.9140015945916133e+01 -2 3 0
5512 444 2 -8.2999999999999996e-01 9.4342069617131248e+00 5.2986170257462240e+00 2.7675878422462247e+01 1 -1 0
599 444 1 4.1499999999999998e-01 3.5110382009809800e+00 3.9626313824641897e+00 3.0368862564430465e+01 2 3 0
4307 444 1 4.1499999999999998e-01 3.7740321572699291e+00 7.7123695092378854e+00 2.9241478742110861e+01 2 -3 0
600 444 1 4.1499999999999998e-01 4.9919752103634947e+00 3.6484596126696611e+00 3.0372969005088503e+01 2 3 0
3432 444 1 4.1499999999999998e-01 6.7824577956560983e+00 3.9019366835926315e+00 3.1763502442805727e+01 -1 4 0
1740 444 1 4.1499999999999998e-01 5.3294810641880974e-01 5.7237911118119724e+00 2.6046299064866592e+01 -1 -2 0