LAMMPS data file via write_data, version 11 Aug 2017, timestep = 5000000

7168 atoms
4 atom types
4000 bonds
1 bond types
2000 angles
1 angle types

0.0000000000000000e+00 4.5679949999999998e+01 xlo xhi
0.0000000000000000e+00 4.6885919999999999e+01 ylo yhi
0.0000000000000000e+00 6.5000000000000000e+01 zlo zhi

Masses

1 1.0079
2 15.9994
3 18.9984
4 107.868

Bond Coeffs # harmonic

1 450 0.9572

Angle Coeffs # harmonic

1 55 104.52

Atoms # full

6017 444 4 0.0000000000000000e+00 1.6907200000000000e+00 0.0000000000000000e+00 0.0000000000000000e+00 0 0 0
6018 444 4 0.0000000000000000e+00 4.2285000000000004e+00 1.4651900000000000e+00 0.0000000000000000e+00 0 0 0
6019 444 4 5.5559999999999998e-02 1.6907700000000001e+00 0.0000000000000000e+00 7.1781499999999996e+00 0 0 0
6020 444 4 5.5559999999999998e-02 4.2285500000000003e+00 1.4651900000000000e+00 7.1781499999999996e+00 0 0 0
6021 444 4 0.0000000000000000e+00 2.5366499999999998e+00 1.4651900000000000e+00 2.3926400000000001e+00 0 0 0
6022 444 4 0.0000000000000000e+00 5.0744199999999999e+00 0.0000000000000000e+00 2.3926400000000001e+00 0 0 0
6023 444 4 0.0000000000000000e+00 8.4509000000000001e-01 1.4651900000000000e+00 4.7824200000000001e+00 0 0 0
6024 444 4 0.0000000000000000e+00 3.3828600000000000e+00 0.0000000000000000e+00 4.7824499999999999e+00 0 0 0
6025 444 4 0.0000000000000000e+00 1.6907200000000000e+00 2.9303699999999999e+00 0.0000000000000000e+00 0 0 0
6026 444 4 0.0000000000000000e+00 4.2285000000000004e+00 4.3955599999999997e+00 0.0000000000000000e+00 0 0 0
6027 444 4 5.5559999999999998e-02 1.6907700000000001e+00 2.9303699999999999e+00 7.1781899999999998e+00 0 0 0
6028 444 4 5.5559999999999998e-02 4.2285500000000003e+00 4.3955599999999997e+00 7.1781600000000001e+00 0 0 0
6029 444 4 0.0000000000000000e+00 2.5366499999999998e+00 4.3955599999999997e+00 2.3926400000000001e+00 0 0 0
6030 444 4 0.0000000000000000e+00 5.0744199999999999e+00 2.9303699999999999e+00 2.3926400000000001e+00 0 0 0
6031 444 4 0.0000000000000000e+00 8.4509000000000001e-01 4.3955599999999997e+00 4.7824499999999999e+00 0 0 0
6032 444 4 0.0000000000000000e+00 3.3828700000000000e+00 2.9303699999999999e+00 4.7824400000000002e+00 0 0 0
6033 444 4 0.0000000000000000e+00 1.6907200000000000e+00 5.8607399999999998e+00 0.0000000000000000e+00 0 0 0
6034 444 4 0.0000000000000000e+00 4.2285000000000004e+00 7.3259299999999996e+00 0.0000000000000000e+00 0 0 0
6035 444 4 5.5559999999999998e-02 1.6907700000000001e+00 5.8607399999999998e+00 7.1781499999999996e+00 0 0 0
6036 444 4 5.5559999999999998e-02 4.2285500000000003e+00 7.3259299999999996e+00 7.1781499999999996e+00 0 0 0
6037 444 4 0.0000000000000000e+00 2.5366499999999998e+00 7.3259299999999996e+00 2.3926400000000001e+00 0 0 0
6038 444 4 0.0000000000000000e+00 5.0744199999999999e+00 5.8607399999999998e+00 2.3926400000000001e+00 0 0 0
6039 444 4 0.0000000000000000e+00 8.4509000000000001e-01 7.3259299999999996e+00 4.7824200000000001e+00 0 0 0
6040 444 4 0.0000000000000000e+00 3.3828600000000000e+00 5.8607399999999998e+00 4.7824499999999999e+00 0 0 0
6145 444 4 0.0000000000000000e+00 6.7662699999999996e+00 0.0000000000000000e+00 0.0000000000000000e+00 0 0 0
6147 444 4 5.5559999999999998e-02 6.7663200000000003e+00 0.0000000000000000e+00 7.1781499999999996e+00 0 0 0
6149 444 4 0.0000000000000000e+00 7.6121999999999996e+00 1.4651900000000000e+00 2.3926400000000001e+00 0 0 0
6151 444 4 0.0000000000000000e+00 5.9206399999999997e+00 1.4651900000000000e+00 4.7824200000000001e+00 0 0 0
6153 444 4 0.0000000000000000e+00 6.7662699999999996e+00 2.9303699999999999e+00 0.0000000000000000e+00 0 0 0
6155 444 4 5.5559999999999998e-02 6.7663200000000003e+00 2.9303699999999999e+00 7.1781899999999998e+00 0 0 0
6157 444 4 0.0000000000000000e+00 7.6121999999999996e+00 4.3955599999999997e+00 2.3926400000000001e+00 0 0 0
6159 444 4 0.0000000000000000e+00 5.9206399999999997e+00 4.3955599999999997e+00 4.7824499999999999e+00 0 0 0
6161 444 4 0.0000000000000000e+00 6.7662699999999996e+00 5.8607399999999998e+00 0.0000000000000000e+00 0 0 0
6163 444 4 5.5559999999999998e-02 6.7663200000000003e+00 5.8607399999999998e+00 7.1781499999999996e+00 0 0 0
6165 444 4 0.0000000000000000e+00 7.6121999999999996e+00 7.3259299999999996e+00 2.3926400000000001e+00 0 0 0
6167 444 4 0.0000000000000000e+00 5.9206399999999997e+00 7.3259299999999996e+00 4.7824200000000001e+00 0 0 0
6041 444 4 0.0000000000000000e+00 1.6907200000000000e+00 8.7911099999999998e+00 0.0000000000000000e+00 0 0 0
6042 444 4 0.0000000000000000e+00 4.2285000000000004e+00 1.0256300000000000e+01 0.0000000000000000e+00 0 0 0
6043 444 4 5.5559999999999998e-02 1.6907700000000001e+00 8.7911099999999998e+00 7.1781899999999998e+00 0 0 0
6044 444 4 5.5559999999999998e-02 4.2285500000000003e+00 1.0256300000000000e+01 7.1781600000000001e+00 0 0 0
6045 444 4 0.0000000000000000e+00 2.5366499999999998e+00 1.0256300000000000e+01 2.3926400000000001e+00 0 0 0
6046 444 4 0.0000000000000000e+00 5.0744199999999999e+00 8.7911099999999998e+00 2.3926400000000001e+00 0 0 0
6047 444 4 0.0000000000000000e+00 8.4509000000000001e-01 1.0256300000000000e+01 4.7824499999999999e+00 0 0 0
6048 444 4 0.0000000000000000e+00 3.3828700000000000e+00 8.7911099999999998e+00 4.7824400000000002e+00 0 0 0
6169 444 4 0.0000000000000000e+00 6.7662699999999996e+00 8.7911099999999998e+00 0.0000000000000000e+00 0 0 0
6171 444 4 5.5559999999999998e-02 6.7663200000000003e+00 8.7911099999999998e+00 7.1781899999999998e+00 0 0 0
6173 444 4 0.0000000000000000e+00 7.6121999999999996e+00 1.0256300000000000e+01 2.3926400000000001e+00 0 0 0
6175 444 4 0.0000000000000000e+00 5.9206399999999997e+00 1.0256300000000000e+01 4.7824499999999999e+00 0 0 0
6146 444 4 0.0000000000000000e+00 9.3040500000000002e+00 1.4651900000000000e+00 0.0000000000000000e+00 0 0 0
6148 444 4 5.5559999999999998e-02 9.3041000000000000e+00 1.4651900000000000e+00 7.1781499999999996e+00 0 0 0
6150 444 4 0.0000000000000000e+00 1.0149970000000000e+01 0.0000000000000000e+00 2.3926400000000001e+00 0 0 0
6152 444 4 0.0000000000000000e+00 8.4584100000000007e+00 0.0000000000000000e+00 4.7824499999999999e+00 0 0 0
6154 444 4 0.0000000000000000e+00 9.3040500000000002e+00 4.3955599999999997e+00 0.0000000000000000e+00 0 0 0
6156 444 4 5.5559999999999998e-02 9.3041000000000000e+00 4.3955599999999997e+00 7.1781600000000001e+00 0 0 0
6158 444 4 0.0000000000000000e+00 1.0149970000000000e+01 2.9303699999999999e+00 2.3926400000000001e+00 0 0 0
6160 444 4 0.0000000000000000e+00 8.4584200000000003e+00 2.9303699999999999e+00 4.7824400000000002e+00 0 0 0
6162 444 4 0.0000000000000000e+00 9.3040500000000002e+00 7.3259299999999996e+00 0.0000000000000000e+00 0 0 0
6164 444 4 5.5559999999999998e-02 9.3041000000000000e+00 7.3259299999999996e+00 7.1781499999999996e+00 0 0 0
6166 444 4 0.0000000000000000e+00 1.0149970000000000e+01 5.8607399999999998e+00 2.3926400000000001e+00 0 0 0
6168 444 4 0.0000000000000000e+00 8.4584100000000007e+00 5.8607399999999998e+00 4.7824499999999999e+00 0 0 0
6279 444 4 0.0000000000000000e+00 1.0996190000000000e+01 1.4651900000000000e+00 4.7824200000000001e+00 0 0 0
6287 444 4 0.0000000000000000e+00 1.0996190000000000e+01 4.3955599999999997e+00 4.7824499999999999e+00 0 0 0
6295 444 4 0.0000000000000000e+00 1.0996190000000000e+01 7.3259299999999996e+00 4.7824200000000001e+00 0 0 0
6170 444 4 0.0000000000000000e+00 9.3040500000000002e+00 1.0256300000000000e+01 0.0000000000000000e+00 0 0 0
6172 444 4 5.5559999999999998e-02 9.3041000000000000e+00 1.0256300000000000e+01 7.1781600000000001e+00 0 0 0
6174 444 4 0.0000000000000000e+00 1.0149970000000000e+01 8.7911099999999998e+00 2.3926400000000001e+00 0 0 0
6176 444 4 0.0000000000000000e+00 8.4584200000000003e+00 8.7911099999999998e+00 4.7824400000000002e+00 0 0 0
6303 444 4 0.0000000000000000e+00 1.0996190000000000e+01 1.0256300000000000e+01 4.7824499999999999e+00 0 0 0
6273 444 4 0.0000000000000000e+00 1.1841820000000000e+01 0.0000000000000000e+00 0.0000000000000000e+00 0 0 0
6274 444 4 0.0000000000000000e+00 1.4379600000000000e+01 1.4651900000000000e+00 0.0000000000000000e+00 0 0 0
6275 444 4 5.5559999999999998e-02 1.1841870000000000e+01 0.0000000000000000e+00 7.1781499999999996e+00 0 0 0
6276 444 4 5.5559999999999998e-02 1.4379650000000000e+01 1.4651900000000000e+00 7.1781499999999996e+00 0 0 0
6277 444 4 0.0000000000000000e+00 1.2687749999999999e+01 1.4651900000000000e+00 2.3926400000000001e+00 0 0 0
6278 444 4 0.0000000000000000e+00 1.5225519999999999e+01 0.0000000000000000e+00 2.3926400000000001e+00 0 0 0
6280 444 4 0.0000000000000000e+00 1.3533960000000000e+01 0.0000000000000000e+00 4.7824499999999999e+00 0 0 0
6281 444 4 0.0000000000000000e+00 1.1841820000000000e+01 2.9303699999999999e+00 0.0000000000000000e+00 0 0 0
6282 444 4 0.0000000000000000e+00 1.4379600000000000e+01 4.3955599999999997e+00 0.0000000000000000e+00 0 0 0
6283 444 4 5.5559999999999998e-02 1.1841870000000000e+01 2.9303699999999999e+00 7.1781899999999998e+00 0 0 0
6284 444 4 5.5559999999999998e-02 1.4379650000000000e+01 4.3955599999999997e+00 7.1781600000000001e+00 0 0 0
6285 444 4 0.0000000000000000e+00 1.2687749999999999e+01 4.3955599999999997e+00 2.3926400000000001e+00 0 0 0
6286 444 4 0.0000000000000000e+00 1.5225519999999999e+01 2.9303699999999999e+00 2.3926400000000001e+00 0 0 0
6288 444 4 0.0000000000000000e+00 1.3533970000000000e+01 2.9303699999999999e+00 4.7824400000000002e+00 0 0 0
6289 444 4 0.0000000000000000e+00 1.1841820000000000e+01 5.8607399999999998e+00 0.0000000000000000e+00 0 0 0
6290 444 4 0.0000000000000000e+00 1.4379600000000000e+01 7.3259299999999996e+00 0.0000000000000000e+00 0 0 0
6291 444 4 5.5559999999999998e-02 1.1841870000000000e+01 5.8607399999999998e+00 7.1781499999999996e+00 0 0 0
6292 444 4 5.5559999999999998e-02 1.4379650000000000e+01 7.3259299999999996e+00 7.1781499999999996e+00 0 0 0
6293 444 4 0.0000000000000000e+00 1.2687749999999999e+01 7.3259299999999996e+00 2.3926400000000001e+00 0 0 0
6294 444 4 0.0000000000000000e+00 1.5225519999999999e+01 5.8607399999999998e+00 2.3926400000000001e+00 0 0 0
6296 444 4 0.0000000000000000e+00 1.3533960000000000e+01 5.8607399999999998e+00 4.7824499999999999e+00 0 0 0
6297 444 4 0.0000000000000000e+00 1.1841820000000000e+01 8.7911099999999998e+00 0.0000000000000000e+00 0 0 0
6298 444 4 0.0000000000000000e+00 1.4379600000000000e+01 1.0256300000000000e+01 0.0000000000000000e+00 0 0 0
6299 444 4 5.5559999999999998e-02 1.1841870000000000e+01 8.7911099999999998e+00 7.1781899999999998e+00 0 0 0
6300 444 4 5.5559999999999998e-02 1.4379650000000000e+01 1.0256300000000000e+01 7.1781600000000001e+00 0 0 0
6301 444 4 0.0000000000000000e+00 1.2687749999999999e+01 1.0256300000000000e+01 2.3926400000000001e+00 0 0 0
6302 444 4 0.0000000000000000e+00 1.5225519999999999e+01 8.7911099999999998e+00 2.3926400000000001e+00 0 0 0
6304 444 4 0.0000000000000000e+00 1.3533970000000000e+01 8.7911099999999998e+00 4.7824400000000002e+00 0 0 0
4310 444 1 4.1499999999999998e-01 2.3550393860852790e+00 2.7285349473665916e+00 9.9434543069291834e+00 0 -1 0
6011 444 3 -1.0000000000000000e+00 2.8922188206386479e+00 4.0922344709243479e+00 9.1454720145859092e+00 0 0 0
5636 444 1 4.1499999999999998e-01 5.0271607091588475e+00 2.3492959353528100e+00 1.0280233689161481e+01 -1 0 0
5635 444 2 -8.2999999999999996e-01 5.3624928035145700e+00 3.2372170128740021e+00 1.0404251398563220e+01 -1 0 0
420 444 1 4.1499999999999998e-01 7.3231485904285867e+00 7.0475249312202024e+00 1.0339102354458223e+01 -1 -1 0
5637 444 1 4.1499999999999998e-01 4.6506544764941475e+00 3.8057815500132679e+00 1.0110563777283270e+01 -1 0 0
419 444 1 4.1499999999999998e-01 6.3112230480608744e+00 8.1485388992470007e+00 1.0103157188893764e+01 -1 -1 0
4820 444 1 4.1499999999999998e-01 3.9507341864754451e+00 9.0743593548921702e+00 1.0196173192696335e+01 1 1 0
4819 444 2 -8.2999999999999996e-01 4.7804088837188692e+00 8.5973404606454977e+00 1.0214194441534447e+01 1 1 0
704 444 1 4.1499999999999998e-01 2.8544209508721976e+00 6.7169276137892950e+00 1.0514550171791550e+01 -2 -1 0
705 444 1 4.1499999999999998e-01 3.3641522385864358e+00 5.6096235942524126e+00 9.6168046610911606e+00 -2 -1 0
703 444 2 -8.2999999999999996e-01 3.6393324156381923e+00 6.2082009846462727e+00 1.0311220172038153e+01 -2 -1 0
3071 444 1 4.1499999999999998e-01 2.2018920066804504e+00 4.6254835220148740e+00 1.2883980424231204e+01 -2 -1 0
4821 444 1 4.1499999999999998e-01 4.5352483524233032e+00 7.6975105429638289e+00 1.0429680632272854e+01 1 1 0
4309 444 2 -8.2999999999999996e-01 2.2440352197960287e+00 1.8240847120470325e+00 1.0236506953626657e+01 0 -1 0
418 444 2 -8.2999999999999996e-01 7.2520825787690715e+00 7.9879504460678019e+00 1.0175452298829340e+01 -1 -1 0
4311 444 1 4.1499999999999998e-01 3.1202452816965507e+00 1.4433386666713366e+00 1.0177175496220620e+01 0 -1 0
2178 444 1 4.1499999999999998e-01 2.6023414592174294e-02 6.6197567410425826e+00 1.5191330782816379e+01 -1 -1 0
3540 444 1 4.1499999999999998e-01 1.4908166779462304e+00 4.5588773979591064e+00 9.7429900900830937e+00 0 5 0
3923 444 1 4.1499999999999998e-01 1.0685850624994282e+00 8.1228782763387404e+00 1.0024768510833272e+01 1 -1 0
2989 444 2 -8.2999999999999996e-01 4.7622759967498265e+00 2.3231649100174736e+00 1.3145984323730152e+01 2 1 0
3539 444 1 4.1499999999999998e-01 7.4692799212392436e-01 5.7093822755009711e+00 1.0387088985008537e+01 0 5 0
3538 444 2 -8.2999999999999996e-01 6.3221808303399052e-01 4.8084903825562790e+00 1.0084653400507250e+01 0 5 0
3922 444 2 -8.2999999999999996e-01 1.2266760037901951e+00 7.4122409766678814e+00 1.0646245720160632e+01 1 -1 0
2990 444 1 4.1499999999999998e-01 4.1417977329074107e+00 3.0520159840306378e+00 1.3149907745754799e+01 2 1 0
5973 444 1 4.1499999999999998e-01 4.4776159022981368e+00 5.5130051260751216e+00 1.5583606641855058e+01 -1 0 0
1634 444 1 4.1499999999999998e-01 5.8363805430835312e+00 7.3662191779117734e+00 1.4761403226000658e+01 0 2 0
3924 444 1 4.1499999999999998e-01 8.0061094839298197e-01 7.7002316124036012e+00 1.1453563401260062e+01 1 -1 0
5277 444 1 4.1499999999999998e-01 5.8360430730691544e+00 1.0185131934882271e+01 1.0281000976418506e+01 1 2 0
2991 444 1 4.1499999999999998e-01 5.3205551268084719e+00 2.4873503557258290e+00 1.2385984322046507e+01 2 1 0
3072 444 1 4.1499999999999998e-01 3.1446770300925713e+00 5.0733991801286349e+00 1.1787429408443577e+01 -2 -1 0
3070 444 2 -8.2999999999999996e-01 3.0791803033294358e+00 4.9793371385315437e+00 1.2737742391520076e+01 -2 -1 0
541 444 2 -8.2999999999999996e-01 2.7540257011101432e+00 1.0124666990645139e+01 1.0376457340978638e+01 -3 -1 0
542 444 1 4.1499999999999998e-01 1.9864291235928209e+00 9.6877673931413675e+00 1.0007477231983570e+01 -3 -1 0
1635 444 1 4.1499999999999998e-01 6.3620062153952253e+00 6.9424445665978212e+00 1.3406402106919401e+01 0 2 0
5971 444 2 -8.2999999999999996e-01 4.8068188333351509e+00 4.8951942208614847e+00 1.6236421289005300e+01 -1 0 0
823 444 2 -8.2999999999999996e-01 7.2499364533050050e+00 9.1374765330509806e+00 1.6197282922456754e+01 -2 -2 0
31 444 2 -8.2999999999999996e-01 4.0038486593629354e+00 6.9625538341991078e+00 1.4902987861526144e+01 0 1 0
32 444 1 4.1499999999999998e-01 3.6301701423666208e+00 7.8409692427350324e+00 1.4832392570345698e+01 0 1 0
33 444 1 4.1499999999999998e-01 3.5336347081279662e+00 6.4482744363319435e+00 1.4246749816735152e+01 0 1 0
2663 444 1 4.1499999999999998e-01 4.1718438767854700e+00 7.8164549725770427e-01 1.3484101969480065e+01 -1 0 0
4197 444 1 4.1499999999999998e-01 1.3972224206113022e+00 4.3423526682568242e-01 1.0377855739651551e+01 2 4 0
2177 444 1 4.1499999999999998e-01 5.9081106148194751e-01 5.5336069317036234e+00 1.4300719281666755e+01 -1 -1 0
824 444 1 4.1499999999999998e-01 7.2071162075047868e+00 8.4718192917283623e+00 1.5510770401880938e+01 -2 -2 0
5421 444 1 4.1499999999999998e-01 1.7339021788074345e+00 8.7722226370035301e+00 1.3250090928430382e+01 0 -3 0
1718 444 1 4.1499999999999998e-01 5.2710197460029953e+00 6.5540185663805983e-02 1.0890005313070445e+01 0 1 0
3548 444 1 4.1499999999999998e-01 5.9450988826509148e+00 1.0807701986415696e+01 1.3386505210439246e+01 -2 2 0
1103 444 1 4.1499999999999998e-01 9.7789286021012156e-01 2.7434338644796696e+00 1.4054141805317986e+01 0 2 0
3547 444 2 -8.2999999999999996e-01 6.8704478382236918e+00 1.0944254175449428e+01 1.3589767040244167e+01 -2 2 0
1687 444 2 -8.2999999999999996e-01 4.0608647016931050e+00 1.0681674252907724e+01 1.2840628463050576e+01 -1 0 0
6001 444 3 -1.0000000000000000e+00 6.0546959741525486e-01 9.4457385792074131e+00 9.2309049988047640e+00 -1 -1 0
4073 444 1 4.1499999999999998e-01 6.3450959501089228e+00 4.8627691322087117e+00 1.0523120518902777e+01 0 -6 0
5780 444 1 4.1499999999999998e-01 3.2133102881443693e-02 1.0595649789062238e+01 1.0052310139683614e+01 2 -1 0
1102 444 2 -8.2999999999999996e-01 8.6664653870154751e-01 3.5720930902130328e+00 1.3588115727963608e+01 0 2 0
3798 444 1 4.1499999999999998e-01 5.5223250595469047e+00 3.1755550510600963e+00 1.5943498944314623e+01 2 2 0
1688 444 1 4.1499999999999998e-01 3.9252125877742792e+00 1.0367183079895577e+01 1.1946801805584819e+01 -1 0 0
1689 444 1 4.1499999999999998e-01 3.1921219171267090e+00 1.0648495449375957e+01 1.3241149757899795e+01 -1 0 0
3549 444 1 4.1499999999999998e-01 7.3246187124996531e+00 1.0242084414747945e+01 1.3124021681543994e+01 -2 2 0
4072 444 2 -8.2999999999999996e-01 7.1878481517840598e+00 5.3020338307206805e+00 1.0637344467856675e+01 0 -6 0
5420 444 1 4.1499999999999998e-01 1.2872992557712211e+00 9.1207670049045113e+00 1.4653998998484406e+01 0 -3 0
5419 444 2 -8.2999999999999996e-01 2.0702822917200083e+00 9.0002614392232108e+00 1.4116739118959163e+01 0 -3 0
543 444 1 4.1499999999999998e-01 2.4947502971968665e+00 1.1043067358718442e+01 1.0450948540997638e+01 -3 -1 0
5275 444 2 -8.2999999999999996e-01 6.2115791146999229e+00 1.0975113995996065e+01 9.8922429639416141e+00 1 2 0
1633 444 2 -8.2999999999999996e-01 6.6320510329362783e+00 7.3495426019201151e+00 1.4229554183923691e+01 0 2 0
5276 444 1 4.1499999999999998e-01 5.6047118905107007e+00 1.1674177965718885e+01 1.0135663495805392e+01 1 2 0
3796 444 2 -8.2999999999999996e-01 5.8896999605803613e+00 2.3019502346337686e+00 1.5809023879606235e+01 2 2 0
3797 444 1 4.1499999999999998e-01 5.7429015028911570e+00 2.1201521728332562e+00 1.4880782422242604e+01 2 2 0
1717 444 2 -8.2999999999999996e-01 4.7002751042465496e+00 2.9047764412893845e-01 1.0155236270028729e+01 0 1 0
5921 444 1 4.1499999999999998e-01 1.3750189041767302e+00 2.5669604440244026e-01 1.5857701228240453e+01 -2 6 0
5920 444 2 -8.2999999999999996e-01 2.3289011945572291e+00 1.8859889326986379e-01 1.5898981887358927e+01 -2 6 0
5437 444 2 -8.2999999999999996e-01 4.3800572046784857e-02 9.2259344726623045e+00 1.2404239508631619e+01 -6 -3 0
2664 444 1 4.1499999999999998e-01 3.7093267366175393e+00 1.6262823104185517e-03 1.4696349091475374e+01 -1 0 0
1104 444 1 4.1499999999999998e-01 1.8394487178255758e-02 3.4902860823653858e+00 1.3152216189236027e+01 0 2 0
1937 444 1 4.1499999999999998e-01 2.1826571724232480e-01 3.0638991217350577e+00 1.0401614432653696e+01 0 -1 0
825 444 1 4.1499999999999998e-01 7.9055092624228767e+00 9.7615626463949923e+00 1.5885876561247441e+01 -2 -2 0
5354 444 1 4.1499999999999998e-01 1.5219338131598859e+01 2.3208858098339022e-01 1.5718258926059347e+01 2 -2 0
2760 444 1 4.1499999999999998e-01 8.0600129462339876e+00 8.9876571839495156e+00 1.1292042145667036e+01 -1 4 0
1559 444 1 4.1499999999999998e-01 7.8956512574435775e+00 6.5560469895659832e+00 1.5567254428742983e+01 2 2 0
1088 444 1 4.1499999999999998e-01 8.6458187463570884e+00 8.1656965666666015e-01 1.2831902987327034e+01 3 -1 0
5219 444 1 4.1499999999999998e-01 1.0149683205291090e+01 8.6703979141616871e-01 1.0442125612446684e+01 -3 -1 0
2255 444 1 4.1499999999999998e-01 1.1508038658151715e+01 8.0583806139183645e-01 1.3310450161844239e+01 3 0 0
1537 444 2 -8.2999999999999996e-01 1.3256610972831703e+01 5.8526032652813171e+00 1.6221855445348037e+01 1 -2 0
4074 444 1 4.1499999999999998e-01 7.8026626655397244e+00 4.5947528598533545e+00 1.0832251130263364e+01 0 -6 0
9 444 1 4.1499999999999998e-01 1.1018381852685422e+01 8.1067934172609029e+00 1.4604314168211490e+01 2 4 0
1156 444 2 -8.2999999999999996e-01 1.1853486548989933e+01 7.9491659392896903e+00 1.0083816060304553e+01 3 3 0
2759 444 1 4.1499999999999998e-01 8.8794721153632725e+00 1.0258691149938878e+01 1.1222368042523948e+01 -1 4 0
2758 444 2 -8.2999999999999996e-01 8.5885514921907777e+00 9.5779268198979377e+00 1.1829127461838805e+01 -1 4 0
5405 444 1 4.1499999999999998e-01 8.8483349469860482e+00 7.1335729321515231e+00 1.0384012505644082e+01 0 2 0
1061 444 1 4.1499999999999998e-01 1.3439513930597201e+01 9.3028473593452077e+00 1.4338172869016599e+01 -4 -1 0
1060 444 2 -8.2999999999999996e-01 1.3465541850962417e+01 9.2675417715218220e+00 1.5294367385041493e+01 -4 -1 0
1062 444 1 4.1499999999999998e-01 1.2756866534228832e+01 8.6695208188214874e+00 1.5531816543617737e+01 -4 -1 0
2308 444 2 -8.2999999999999996e-01 1.1936457803597172e+01 3.8334150374468834e+00 1.0346467252115756e+01 0 -1 0
2310 444 1 4.1499999999999998e-01 1.2335075792497072e+01 3.0015252730616342e+00 1.0601996069354644e+01 0 -1 0
2309 444 1 4.1499999999999998e-01 1.2675996219008745e+01 4.4324059021321922e+00 1.0243877336862427e+01 0 -1 0
3955 444 2 -8.2999999999999996e-01 9.3005044053073807e+00 3.7535079114469032e+00 1.0369891373441464e+01 1 3 0
3956 444 1 4.1499999999999998e-01 9.2024970996429047e+00 2.8129530930600528e+00 1.0221624341894959e+01 1 3 0
3957 444 1 4.1499999999999998e-01 1.0241188884378003e+01 3.9121204160987944e+00 1.0291235951201914e+01 1 3 0
5404 444 2 -8.2999999999999996e-01 9.5676083625760047e+00 6.5135282637872276e+00 1.0263918459389187e+01 0 2 0
5406 444 1 4.1499999999999998e-01 9.1374502383635861e+00 5.6659114370753700e+00 1.0151037191563361e+01 0 2 0
3979 444 2 -8.2999999999999996e-01 1.0958172363019610e+01 5.5079488224344546e+00 1.2596248452498797e+01 -2 -1 0
3980 444 1 4.1499999999999998e-01 1.0516409205839928e+01 5.3119343709823630e+00 1.1770018766155852e+01 -2 -1 0
3981 444 1 4.1499999999999998e-01 1.0815931363705234e+01 6.4453143540555571e+00 1.2727949587313359e+01 -2 -1 0
1158 444 1 4.1499999999999998e-01 1.2533939470748992e+01 7.3457299516768044e+00 1.0382282332535819e+01 3 3 0
1157 444 1 4.1499999999999998e-01 1.1051011568969495e+01 7.4273973964508677e+00 1.0088766460490362e+01 3 3 0
5232 444 1 4.1499999999999998e-01 1.2673057245396166e+01 9.6174145152933725e+00 9.9447521170475994e+00 -2 -2 0
4204 444 2 -8.2999999999999996e-01 1.0408883881859806e+01 1.9052200774609891e+00 1.3138543350402299e+01 2 -1 0
4206 444 1 4.1499999999999998e-01 9.9736615440721614e+00 2.4926183322010318e+00 1.3756424319581479e+01 2 -1 0
4205 444 1 4.1499999999999998e-01 1.0100565076561089e+01 2.1904606404082685e+00 1.2278421721068488e+01 2 -1 0
5231 444 1 4.1499999999999998e-01 1.2758421816480073e+01 1.1105536919086456e+01 1.0209518171189092e+01 -2 -2 0
5230 444 2 -8.2999999999999996e-01 1.3300667535355130e+01 1.0328047121585557e+01 1.0076431666338300e+01 -2 -2 0
5697 444 1 4.1499999999999998e-01 1.1329877104874619e+01 8.4505011779969550e+00 1.2026383049372560e+01 1 -1 0
4602 444 1 4.1499999999999998e-01 1.4139800489369083e+01 5.8956895934550397e+00 1.1431356601904232e+01 0 1 0
4600 444 2 -8.2999999999999996e-01 1.3990192396094399e+01 6.1986946204329501e+00 1.0535791301705773e+01 0 1 0
5201 444 1 4.1499999999999998e-01 7.9353932174102946e+00 1.1191354146473847e+01 9.7370144713496352e+00 4 -4 0
1328 444 1 4.1499999999999998e-01 1.2827950505473641e+01 5.3734049668422310e+00 1.3037890509565557e+01 1 -1 0
5200 444 2 -8.2999999999999996e-01 8.8456028644928235e+00 1.1359112674356021e+01 9.9811637283562433e+00 4 -4 0
5696 444 1 4.1499999999999998e-01 9.9131813053456810e+00 8.4855574510672778e+00 1.2558960936229646e+01 1 -1 0
4601 444 1 4.1499999999999998e-01 1.4825608552843956e+01 6.0551320598966054e+00 1.0091154897981625e+01 0 1 0
5695 444 2 -8.2999999999999996e-01 1.0790143481027895e+01 8.1597492391018722e+00 1.2761490362237033e+01 1 -1 0
1910 444 1 4.1499999999999998e-01 1.3492282183827292e+01 9.9184617942285485e+00 1.1799576097055938e+01 1 1 0
3624 444 1 4.1499999999999998e-01 1.0043307560826841e+01 1.1037555223569377e+01 1.5533466097361115e+01 -5 -1 0
3312 444 1 4.1499999999999998e-01 1.3959841746156929e+01 1.2248883113116655e+00 1.0056103037130587e+01 1 -2 0
5792 444 1 4.1499999999999998e-01 1.4419269448057507e+01 1.9530156690188101e+00 1.3761345175210336e+01 2 6 0
5791 444 2 -8.2999999999999996e-01 1.4713629859725538e+01 2.7730069245588878e+00 1.3364862557033749e+01 2 6 0
3780 444 1 4.1499999999999998e-01 1.0483138157558482e+01 4.5200525560962035e+00 1.4082563352643685e+01 0 4 0
1538 444 1 4.1499999999999998e-01 1.3070574122067592e+01 4.9222561891085439e+00 1.6095059226936634e+01 1 -2 0
3310 444 2 -8.2999999999999996e-01 1.3969067141237502e+01 2.0016419334495534e+00 1.0615388938971661e+01 1 -2 0
1327 444 2 -8.2999999999999996e-01 1.3763945186564081e+01 5.2510652285791410e+00 1.3196571653722692e+01 1 -1 0
1909 444 2 -8.2999999999999996e-01 1.3529502289382696e+01 9.4568504641413149e+00 1.2637288509665717e+01 1 1 0
7 444 2 -8.2999999999999996e-01 1.1050370690177244e+01 8.1797013098066067e+00 1.5558197297296188e+01 2 4 0
8 444 1 4.1499999999999998e-01 1.0490419303427286e+01 8.9292049353421561e+00 1.5760510524578521e+01 2 4 0
3774 444 1 4.1499999999999998e-01 1.2010341645377062e+01 3.2150146139433824e+00 1.5295611316505147e+01 1 3 0
3773 444 1 4.1499999999999998e-01 1.3484166868452819e+01 3.1618004599402196e+00 1.4953700161427763e+01 1 3 0
3779 444 1 4.1499999999999998e-01 9.4515282515033192e+00 4.1070070503212914e+00 1.5110702609169669e+01 0 4 0
3778 444 2 -8.2999999999999996e-01 1.0339658105627706e+01 3.9146255709000677e+00 1.4809959119880716e+01 0 4 0
1539 444 1 4.1499999999999998e-01 1.2399970924064551e+01 6.2771495077661026e+00 1.6175376923060433e+01 1 -2 0
3622 444 2 -8.2999999999999996e-01 9.6111643051803046e+00 1.0305579999390861e+01 1.5973576307544230e+01 -5 -1 0
1329 444 1 4.1499999999999998e-01 1.3914660450959927e+01 4.3193856699477866e+00 1.3036913133688131e+01 1 -1 0
5673 444 1 4.1499999999999998e-01 1.4972415011257279e+01 8.7327968852250759e+00 1.5784783548308722e+01 4 -2 0
5220 444 1 4.1499999999999998e-01 8.6953477959284449e+00 4.7786441183671707e-01 1.0601330527691847e+01 -3 -1 0
3772 444 2 -8.2999999999999996e-01 1.2880557965449187e+01 3.2205352504009976e+00 1.5694266552066447e+01 1 3 0
1087 444 2 -8.2999999999999996e-01 7.8784805837048397e+00 2.6645618673387805e-01 1.2989381097587328e+01 3 -1 0
5218 444 2 -8.2999999999999996e-01 9.2598629296529875e+00 1.1998348790781768e+00 1.0325082168804792e+01 -3 -1 0
1911 444 1 4.1499999999999998e-01 1.4425966389412071e+01 9.1253201265341843e+00 1.2688989332095639e+01 1 1 0
3362 444 1 4.1499999999999998e-01 1.4162863416523249e+01 1.0984348525378646e+01 1.4994060884968158e+01 -2 -1 0
3311 444 1 4.1499999999999998e-01 1.4541304435744509e+01 1.7650182593995924e+00 1.1345310554063271e+01 1 -2 0
1761 444 1 4.1499999999999998e-01 1.4963367956898077e+01 1.0608428327397682e+01 1.0302661622390145e+01 -3 -1 0
3993 444 1 4.1499999999999998e-01 1.2465522290107563e+01 1.3190017069269544e-01 1.0108466208964185e+01 -1 0 0
2254 444 2 -8.2999999999999996e-01 1.2020475011521450e+01 2.8589770049265439e-03 1.3216293353546414e+01 3 0 0
5972 444 1 4.1499999999999998e-01 4.1726839603002439e+00 4.9415229645308969e+00 1.6951934010501951e+01 -1 0 0
910 444 2 -8.2999999999999996e-01 2.9507318891161904e-01 6.5687387055000332e+00 1.7244035774294030e+01 -3 2 0
5142 444 1 4.1499999999999998e-01 9.9326959601819476e-01 4.5721240601281394e+00 2.0883349206741769e+01 -2 -2 0
1560 444 1 4.1499999999999998e-01 6.7450223983805238e+00 6.0296165167283045e+00 1.6398409880909593e+01 2 2 0
3718 444 2 -8.2999999999999996e-01 4.8042072536838827e+00 1.1830540026918996e+00 1.7944410319024300e+01 1 0 0
3041 444 1 4.1499999999999998e-01 1.5774512478978782e+00 5.2059883277079866e+00 1.7399554655797587e+01 0 0 0
3040 444 2 -8.2999999999999996e-01 2.3818905277431828e+00 4.6878902686838009e+00 1.7373392224597961e+01 0 0 0
3406 444 2 -8.2999999999999996e-01 4.4302619793233946e+00 1.0406466612394984e+01 2.1882402407703609e+01 1 1 0
3719 444 1 4.1499999999999998e-01 5.3417333639823932e+00 1.4921875280536021e+00 1.7215208381955463e+01 1 0 0
4151 444 1 4.1499999999999998e-01 6.7277884002317627e+00 1.5976424600664034e+00 2.0047288901860757e+01 6 -5 0
4150 444 2 -8.2999999999999996e-01 6.4610021614144877e+00 1.5094422084754673e+00 2.0962317751803916e+01 6 -5 0
437 444 1 4.1499999999999998e-01 3.9987229560504387e+00 9.4236496946721149e-01 2.2858384718786404e+01 -1 5 0
3557 444 1 4.1499999999999998e-01 7.2466552034617653e+00 9.1458640920093561e+00 1.7926567486634902e+01 8 -1 0
3556 444 2 -8.2999999999999996e-01 6.9392881192515503e+00 9.0989852239149958e+00 1.8831862844991896e+01 8 -1 0
3558 444 1 4.1499999999999998e-01 6.8807994120927800e+00 8.1617261338063702e+00 1.9017217390689368e+01 8 -1 0
1155 444 1 4.1499999999999998e-01 3.4487795265479257e+00 8.2459277143227787e+00 1.9249852246848604e+01 -2 1 0
4152 444 1 4.1499999999999998e-01 7.0465167142168905e+00 2.0964623783850067e+00 2.1440661170525107e+01 6 -5 0
1613 444 1 4.1499999999999998e-01 1.9372226423163155e-01 2.0368204320987648e+00 2.1832057965282551e+01 0 -2 0
990 444 1 4.1499999999999998e-01 1.0618419347662276e+00 8.4867171787206104e+00 2.2900524191413560e+01 -1 4 0
5141 444 1 4.1499999999999998e-01 5.8624411637766072e-01 5.9646307093758848e+00 2.1315958463425630e+01 -2 -2 0
988 444 2 -8.2999999999999996e-01 2.1087028833483365e-01 8.8971560446343059e+00 2.2746839421238789e+01 -1 4 0
4922 444 1 4.1499999999999998e-01 1.9542367931609390e+00 3.0591943278174032e+00 2.0707426341660049e+01 0 3 0
4923 444 1 4.1499999999999998e-01 3.2618595188458768e+00 3.8089235730665019e+00 2.0848580362119414e+01 0 3 0
4921 444 2 -8.2999999999999996e-01 2.8763467582808220e+00 3.0273761366472716e+00 2.0452606244422711e+01 0 3 0