LAMMPS data file via write_data, version 11 Aug 2017, timestep = 5000000

7155 atoms
4 atom types
4000 bonds
1 bond types
2000 angles
1 angle types

0.0000000000000000e+00 4.5679949999999998e+01 xlo xhi
0.0000000000000000e+00 4.6885919999999999e+01 ylo yhi
0.0000000000000000e+00 6.5000000000000000e+01 zlo zhi

Masses

1 1.0079
2 15.9994
3 18.9984
4 107.868

Bond Coeffs # harmonic

1 450 0.9572

Angle Coeffs # harmonic

1 55 104.52

Atoms # full

6004 444 4 0.0000000000000000e+00 1.6907200000000000e+00 0.0000000000000000e+00 0.0000000000000000e+00 0 0 0
6005 444 4 0.0000000000000000e+00 4.2285000000000004e+00 1.4651900000000000e+00 0.0000000000000000e+00 0 0 0
6006 444 4 1.0420000000000000e-02 1.6907700000000001e+00 0.0000000000000000e+00 7.1781499999999996e+00 0 0 0
6007 444 4 1.0420000000000000e-02 4.2285500000000003e+00 1.4651900000000000e+00 7.1781499999999996e+00 0 0 0
6008 444 4 0.0000000000000000e+00 2.5366499999999998e+00 1.4651900000000000e+00 2.3926400000000001e+00 0 0 0
6009 444 4 0.0000000000000000e+00 5.0744199999999999e+00 0.0000000000000000e+00 2.3926400000000001e+00 0 0 0
6010 444 4 0.0000000000000000e+00 8.4509000000000001e-01 1.4651900000000000e+00 4.7824200000000001e+00 0 0 0
6011 444 4 0.0000000000000000e+00 3.3828600000000000e+00 0.0000000000000000e+00 4.7824499999999999e+00 0 0 0
6012 444 4 0.0000000000000000e+00 1.6907200000000000e+00 2.9303699999999999e+00 0.0000000000000000e+00 0 0 0
6013 444 4 0.0000000000000000e+00 4.2285000000000004e+00 4.3955599999999997e+00 0.0000000000000000e+00 0 0 0
6014 444 4 1.0420000000000000e-02 1.6907700000000001e+00 2.9303699999999999e+00 7.1781899999999998e+00 0 0 0
6015 444 4 1.0420000000000000e-02 4.2285500000000003e+00 4.3955599999999997e+00 7.1781600000000001e+00 0 0 0
6016 444 4 0.0000000000000000e+00 2.5366499999999998e+00 4.3955599999999997e+00 2.3926400000000001e+00 0 0 0
6017 444 4 0.0000000000000000e+00 5.0744199999999999e+00 2.9303699999999999e+00 2.3926400000000001e+00 0 0 0
6018 444 4 0.0000000000000000e+00 8.4509000000000001e-01 4.3955599999999997e+00 4.7824499999999999e+00 0 0 0
6019 444 4 0.0000000000000000e+00 3.3828700000000000e+00 2.9303699999999999e+00 4.7824400000000002e+00 0 0 0
6020 444 4 0.0000000000000000e+00 1.6907200000000000e+00 5.8607399999999998e+00 0.0000000000000000e+00 0 0 0
6021 444 4 0.0000000000000000e+00 4.2285000000000004e+00 7.3259299999999996e+00 0.0000000000000000e+00 0 0 0
6022 444 4 1.0420000000000000e-02 1.6907700000000001e+00 5.8607399999999998e+00 7.1781499999999996e+00 0 0 0
6023 444 4 1.0420000000000000e-02 4.2285500000000003e+00 7.3259299999999996e+00 7.1781499999999996e+00 0 0 0
6024 444 4 0.0000000000000000e+00 2.5366499999999998e+00 7.3259299999999996e+00 2.3926400000000001e+00 0 0 0
6025 444 4 0.0000000000000000e+00 5.0744199999999999e+00 5.8607399999999998e+00 2.3926400000000001e+00 0 0 0
6026 444 4 0.0000000000000000e+00 8.4509000000000001e-01 7.3259299999999996e+00 4.7824200000000001e+00 0 0 0
6027 444 4 0.0000000000000000e+00 3.3828600000000000e+00 5.8607399999999998e+00 4.7824499999999999e+00 0 0 0
6132 444 4 0.0000000000000000e+00 6.7662699999999996e+00 0.0000000000000000e+00 0.0000000000000000e+00 0 0 0
6134 444 4 1.0420000000000000e-02 6.7663200000000003e+00 0.0000000000000000e+00 7.1781499999999996e+00 0 0 0
6136 444 4 0.0000000000000000e+00 7.6121999999999996e+00 1.4651900000000000e+00 2.3926400000000001e+00 0 0 0
6138 444 4 0.0000000000000000e+00 5.9206399999999997e+00 1.4651900000000000e+00 4.7824200000000001e+00 0 0 0
6140 444 4 0.0000000000000000e+00 6.7662699999999996e+00 2.9303699999999999e+00 0.0000000000000000e+00 0 0 0
6142 444 4 1.0420000000000000e-02 6.7663200000000003e+00 2.9303699999999999e+00 7.1781899999999998e+00 0 0 0
6144 444 4 0.0000000000000000e+00 7.6121999999999996e+00 4.3955599999999997e+00 2.3926400000000001e+00 0 0 0
6146 444 4 0.0000000000000000e+00 5.9206399999999997e+00 4.3955599999999997e+00 4.7824499999999999e+00 0 0 0
6148 444 4 0.0000000000000000e+00 6.7662699999999996e+00 5.8607399999999998e+00 0.0000000000000000e+00 0 0 0
6150 444 4 1.0420000000000000e-02 6.7663200000000003e+00 5.8607399999999998e+00 7.1781499999999996e+00 0 0 0
6152 444 4 0.0000000000000000e+00 7.6121999999999996e+00 7.3259299999999996e+00 2.3926400000000001e+00 0 0 0
6154 444 4 0.0000000000000000e+00 5.9206399999999997e+00 7.3259299999999996e+00 4.7824200000000001e+00 0 0 0
6028 444 4 0.0000000000000000e+00 1.6907200000000000e+00 8.7911099999999998e+00 0.0000000000000000e+00 0 0 0
6029 444 4 0.0000000000000000e+00 4.2285000000000004e+00 1.0256300000000000e+01 0.0000000000000000e+00 0 0 0
6030 444 4 1.0420000000000000e-02 1.6907700000000001e+00 8.7911099999999998e+00 7.1781899999999998e+00 0 0 0
6031 444 4 1.0420000000000000e-02 4.2285500000000003e+00 1.0256300000000000e+01 7.1781600000000001e+00 0 0 0
6032 444 4 0.0000000000000000e+00 2.5366499999999998e+00 1.0256300000000000e+01 2.3926400000000001e+00 0 0 0
6033 444 4 0.0000000000000000e+00 5.0744199999999999e+00 8.7911099999999998e+00 2.3926400000000001e+00 0 0 0
6034 444 4 0.0000000000000000e+00 8.4509000000000001e-01 1.0256300000000000e+01 4.7824499999999999e+00 0 0 0
6035 444 4 0.0000000000000000e+00 3.3828700000000000e+00 8.7911099999999998e+00 4.7824400000000002e+00 0 0 0
6156 444 4 0.0000000000000000e+00 6.7662699999999996e+00 8.7911099999999998e+00 0.0000000000000000e+00 0 0 0
6158 444 4 1.0420000000000000e-02 6.7663200000000003e+00 8.7911099999999998e+00 7.1781899999999998e+00 0 0 0
6160 444 4 0.0000000000000000e+00 7.6121999999999996e+00 1.0256300000000000e+01 2.3926400000000001e+00 0 0 0
6162 444 4 0.0000000000000000e+00 5.9206399999999997e+00 1.0256300000000000e+01 4.7824499999999999e+00 0 0 0
6133 444 4 0.0000000000000000e+00 9.3040500000000002e+00 1.4651900000000000e+00 0.0000000000000000e+00 0 0 0
6135 444 4 1.0420000000000000e-02 9.3041000000000000e+00 1.4651900000000000e+00 7.1781499999999996e+00 0 0 0
6137 444 4 0.0000000000000000e+00 1.0149970000000000e+01 0.0000000000000000e+00 2.3926400000000001e+00 0 0 0
6139 444 4 0.0000000000000000e+00 8.4584100000000007e+00 0.0000000000000000e+00 4.7824499999999999e+00 0 0 0
6141 444 4 0.0000000000000000e+00 9.3040500000000002e+00 4.3955599999999997e+00 0.0000000000000000e+00 0 0 0
6143 444 4 1.0420000000000000e-02 9.3041000000000000e+00 4.3955599999999997e+00 7.1781600000000001e+00 0 0 0
6145 444 4 0.0000000000000000e+00 1.0149970000000000e+01 2.9303699999999999e+00 2.3926400000000001e+00 0 0 0
6147 444 4 0.0000000000000000e+00 8.4584200000000003e+00 2.9303699999999999e+00 4.7824400000000002e+00 0 0 0
6149 444 4 0.0000000000000000e+00 9.3040500000000002e+00 7.3259299999999996e+00 0.0000000000000000e+00 0 0 0
6151 444 4 1.0420000000000000e-02 9.3041000000000000e+00 7.3259299999999996e+00 7.1781499999999996e+00 0 0 0
6153 444 4 0.0000000000000000e+00 1.0149970000000000e+01 5.8607399999999998e+00 2.3926400000000001e+00 0 0 0
6155 444 4 0.0000000000000000e+00 8.4584100000000007e+00 5.8607399999999998e+00 4.7824499999999999e+00 0 0 0
6266 444 4 0.0000000000000000e+00 1.0996190000000000e+01 1.4651900000000000e+00 4.7824200000000001e+00 0 0 0
6274 444 4 0.0000000000000000e+00 1.0996190000000000e+01 4.3955599999999997e+00 4.7824499999999999e+00 0 0 0
6282 444 4 0.0000000000000000e+00 1.0996190000000000e+01 7.3259299999999996e+00 4.7824200000000001e+00 0 0 0
6157 444 4 0.0000000000000000e+00 9.3040500000000002e+00 1.0256300000000000e+01 0.0000000000000000e+00 0 0 0
6159 444 4 1.0420000000000000e-02 9.3041000000000000e+00 1.0256300000000000e+01 7.1781600000000001e+00 0 0 0
6161 444 4 0.0000000000000000e+00 1.0149970000000000e+01 8.7911099999999998e+00 2.3926400000000001e+00 0 0 0
6163 444 4 0.0000000000000000e+00 8.4584200000000003e+00 8.7911099999999998e+00 4.7824400000000002e+00 0 0 0
6290 444 4 0.0000000000000000e+00 1.0996190000000000e+01 1.0256300000000000e+01 4.7824499999999999e+00 0 0 0
6260 444 4 0.0000000000000000e+00 1.1841820000000000e+01 0.0000000000000000e+00 0.0000000000000000e+00 0 0 0
6261 444 4 0.0000000000000000e+00 1.4379600000000000e+01 1.4651900000000000e+00 0.0000000000000000e+00 0 0 0
6262 444 4 1.0420000000000000e-02 1.1841870000000000e+01 0.0000000000000000e+00 7.1781499999999996e+00 0 0 0
6263 444 4 1.0420000000000000e-02 1.4379650000000000e+01 1.4651900000000000e+00 7.1781499999999996e+00 0 0 0
6264 444 4 0.0000000000000000e+00 1.2687749999999999e+01 1.4651900000000000e+00 2.3926400000000001e+00 0 0 0
6265 444 4 0.0000000000000000e+00 1.5225519999999999e+01 0.0000000000000000e+00 2.3926400000000001e+00 0 0 0
6267 444 4 0.0000000000000000e+00 1.3533960000000000e+01 0.0000000000000000e+00 4.7824499999999999e+00 0 0 0
6268 444 4 0.0000000000000000e+00 1.1841820000000000e+01 2.9303699999999999e+00 0.0000000000000000e+00 0 0 0
6269 444 4 0.0000000000000000e+00 1.4379600000000000e+01 4.3955599999999997e+00 0.0000000000000000e+00 0 0 0
6270 444 4 1.0420000000000000e-02 1.1841870000000000e+01 2.9303699999999999e+00 7.1781899999999998e+00 0 0 0
6271 444 4 1.0420000000000000e-02 1.4379650000000000e+01 4.3955599999999997e+00 7.1781600000000001e+00 0 0 0
6272 444 4 0.0000000000000000e+00 1.2687749999999999e+01 4.3955599999999997e+00 2.3926400000000001e+00 0 0 0
6273 444 4 0.0000000000000000e+00 1.5225519999999999e+01 2.9303699999999999e+00 2.3926400000000001e+00 0 0 0
6275 444 4 0.0000000000000000e+00 1.3533970000000000e+01 2.9303699999999999e+00 4.7824400000000002e+00 0 0 0
6276 444 4 0.0000000000000000e+00 1.1841820000000000e+01 5.8607399999999998e+00 0.0000000000000000e+00 0 0 0
6277 444 4 0.0000000000000000e+00 1.4379600000000000e+01 7.3259299999999996e+00 0.0000000000000000e+00 0 0 0
6278 444 4 1.0420000000000000e-02 1.1841870000000000e+01 5.8607399999999998e+00 7.1781499999999996e+00 0 0 0
6279 444 4 1.0420000000000000e-02 1.4379650000000000e+01 7.3259299999999996e+00 7.1781499999999996e+00 0 0 0
6280 444 4 0.0000000000000000e+00 1.2687749999999999e+01 7.3259299999999996e+00 2.3926400000000001e+00 0 0 0
6281 444 4 0.0000000000000000e+00 1.5225519999999999e+01 5.8607399999999998e+00 2.3926400000000001e+00 0 0 0
6283 444 4 0.0000000000000000e+00 1.3533960000000000e+01 5.8607399999999998e+00 4.7824499999999999e+00 0 0 0
6284 444 4 0.0000000000000000e+00 1.1841820000000000e+01 8.7911099999999998e+00 0.0000000000000000e+00 0 0 0
6285 444 4 0.0000000000000000e+00 1.4379600000000000e+01 1.0256300000000000e+01 0.0000000000000000e+00 0 0 0
6286 444 4 1.0420000000000000e-02 1.1841870000000000e+01 8.7911099999999998e+00 7.1781899999999998e+00 0 0 0
6287 444 4 1.0420000000000000e-02 1.4379650000000000e+01 1.0256300000000000e+01 7.1781600000000001e+00 0 0 0
6288 444 4 0.0000000000000000e+00 1.2687749999999999e+01 1.0256300000000000e+01 2.3926400000000001e+00 0 0 0
6289 444 4 0.0000000000000000e+00 1.5225519999999999e+01 8.7911099999999998e+00 2.3926400000000001e+00 0 0 0
6291 444 4 0.0000000000000000e+00 1.3533970000000000e+01 8.7911099999999998e+00 4.7824400000000002e+00 0 0 0
1309 444 2 -8.2999999999999996e-01 2.2073889116383358e+00 3.0087716742809039e+00 1.0672683694236012e+01 5 -7 0
450 444 1 4.1499999999999998e-01 1.4987746676326985e+00 5.9057492201489179e+00 1.0666471352871719e+01 -2 0 0
449 444 1 4.1499999999999998e-01 1.1216727614882097e-01 5.4890287508710731e+00 1.0224250446938814e+01 -2 0 0
448 444 2 -8.2999999999999996e-01 1.0091342077124030e+00 5.1654994604540514e+00 1.0307982314225164e+01 -2 0 0
1311 444 1 4.1499999999999998e-01 1.6496591978864363e+00 3.7465721111101717e+00 1.0426066541506598e+01 5 -7 0
4466 444 1 4.1499999999999998e-01 3.8196318448760098e+00 2.3159748866872976e+00 1.0812441354971360e+01 4 3 0
1310 444 1 4.1499999999999998e-01 1.6949544745239664e+00 2.2334497714823636e+00 1.0443513914811836e+01 5 -7 0
574 444 2 -8.2999999999999996e-01 5.4848018203002011e+00 8.0785967602956070e+00 1.0356209884669518e+01 5 -2 0
576 444 1 4.1499999999999998e-01 5.4169746885084171e+00 8.6189698188298500e+00 1.1143375017338160e+01 5 -2 0
2650 444 2 -8.2999999999999996e-01 2.3581165910881263e+00 7.6857996423330439e+00 1.0768874230836557e+01 1 2 0
575 444 1 4.1499999999999998e-01 6.1233095357625871e+00 7.4026441007810151e+00 1.0583430104756907e+01 5 -2 0
3101 444 1 4.1499999999999998e-01 2.5670104543518071e+00 8.2424746458890361e+00 1.3389711826493278e+01 -1 -3 0
3100 444 2 -8.2999999999999996e-01 3.0937642351962098e+00 7.4432613426070482e+00 1.3394233253073860e+01 -1 -3 0
2808 444 1 4.1499999999999998e-01 4.3971255645376051e+00 3.2662442056941599e+00 1.4666712931256047e+01 -1 -2 0
2807 444 1 4.1499999999999998e-01 4.6616890477826489e+00 4.5284050212940219e+00 1.3873711033266870e+01 -1 -2 0
2806 444 2 -8.2999999999999996e-01 4.1449857218530139e+00 3.7227024797005090e+00 1.3864027898204830e+01 -1 -2 0
991 444 2 -8.2999999999999996e-01 5.3136160252411173e+00 9.0840738790852242e+00 1.2971090273000897e+01 3 -3 0
2652 444 1 4.1499999999999998e-01 3.1055170734101805e+00 7.9589250979733457e+00 1.0236871191588254e+01 1 2 0
2651 444 1 4.1499999999999998e-01 1.6976475803326971e+00 8.3624880478523949e+00 1.0620193300551140e+01 1 2 0
992 444 1 4.1499999999999998e-01 5.4489715897928654e+00 9.9036074784280199e+00 1.2495405298593043e+01 3 -3 0
3102 444 1 4.1499999999999998e-01 3.1543466945950809e+00 7.1905514964474095e+00 1.2472984436871407e+01 -1 -3 0
556 444 2 -8.2999999999999996e-01 7.1009393014536739e+00 6.6173201540777606e+00 1.5970086544986904e+01 -1 0 0
4157 444 1 4.1499999999999998e-01 2.9410617608059613e+00 7.4310138665525094e-01 1.0759281350734089e+01 3 1 0
993 444 1 4.1499999999999998e-01 4.8116744283483719e+00 9.3364921417803899e+00 1.3746056331350365e+01 3 -3 0
3163 444 2 -8.2999999999999996e-01 1.1838012152074768e+00 1.0006582592116223e+01 9.9931546571459577e+00 0 -4 0
4467 444 1 4.1499999999999998e-01 5.3208608573302145e+00 2.4092586061686356e+00 1.0640671511694656e+01 4 3 0
4458 444 1 4.1499999999999998e-01 5.3688169601853000e+00 6.6936895612596690e+00 1.3525291390747316e+01 1 -1 0
5370 444 1 4.1499999999999998e-01 4.5213905093652134e+00 9.8240342895437909e+00 9.6767207875337036e+00 -1 2 0
5368 444 2 -8.2999999999999996e-01 4.0715080720318175e+00 1.0553857141713637e+01 1.0102392714763321e+01 -1 2 0
3783 444 1 4.1499999999999998e-01 6.5399087185546767e+00 4.6420332962549491e+00 1.3590667436758979e+01 0 -1 0
1734 444 1 4.1499999999999998e-01 1.7321078370278564e+00 3.7605695705526796e+00 1.2586437201348557e+01 1 0 0
1733 444 1 4.1499999999999998e-01 2.6034161098640953e+00 3.8766178968063056e+00 1.3819015772199913e+01 1 0 0
1732 444 2 -8.2999999999999996e-01 1.6930366907923271e+00 3.9287327301103034e+00 1.3527939464004033e+01 1 0 0
4456 444 2 -8.2999999999999996e-01 5.6315694563451126e+00 5.8271989512991746e+00 1.3214828771005433e+01 1 -1 0
4457 444 1 4.1499999999999998e-01 5.9886757772334400e+00 5.9836051692999614e+00 1.2340618245038163e+01 1 -1 0
3164 444 1 4.1499999999999998e-01 2.1070687464002544e+00 1.0255015178145369e+01 1.0038884262995905e+01 0 -4 0
5369 444 1 4.1499999999999998e-01 4.7403066888698788e+00 1.0958773797579749e+01 1.0654645848161680e+01 -1 2 0
557 444 1 4.1499999999999998e-01 6.9558350434110485e+00 5.9753871801272034e+00 1.5275033223321408e+01 -1 0 0
3232 444 2 -8.2999999999999996e-01 4.7276483916375271e+00 1.0330590278409552e+01 1.5271024154603170e+01 1 5 0
4465 444 2 -8.2999999999999996e-01 4.6192087140659996e+00 1.7906936596741392e+00 1.0843879695367379e+01 4 3 0
3782 444 1 4.1499999999999998e-01 7.1795279050398184e+00 3.3945619409321082e+00 1.3019180135190282e+01 0 -1 0
255 444 1 4.1499999999999998e-01 1.5059238896887699e+00 9.8262889542961052e+00 1.4742786864076693e+01 -1 2 0
2366 444 1 4.1499999999999998e-01 1.7235305331416728e+00 1.3155903671946552e+00 1.4391989857775533e+01 3 3 0
3165 444 1 4.1499999999999998e-01 7.1025022580581920e-01 1.0838205745141311e+01 1.0012760208808000e+01 0 -4 0
4079 444 1 4.1499999999999998e-01 4.6212592722567907e+00 4.2539704785710747e-01 1.6219817088659688e+01 -1 1 0
4755 444 1 4.1499999999999998e-01 6.8905101584195476e+00 1.1317138308048305e+01 1.4522382683102249e+01 -1 2 0
3235 444 2 -8.2999999999999996e-01 7.1460035093329237e+00 6.0831722401502653e+00 1.1049273199884697e+01 3 -4 0
3781 444 2 -8.2999999999999996e-01 7.2414171589959571e+00 4.0104145690695843e+00 1.3749335678383005e+01 0 -1 0
2256 444 1 4.1499999999999998e-01 7.3223013947286928e+00 2.4627383037804771e+00 1.0205394632435445e+01 -2 2 0
3237 444 1 4.1499999999999998e-01 7.0882530375536232e+00 5.2637505582894013e+00 1.0557901864066006e+01 3 -4 0
2254 444 2 -8.2999999999999996e-01 7.3700758747962816e+00 3.4149458304046627e+00 1.0120245616719348e+01 -2 2 0
3233 444 1 4.1499999999999998e-01 5.0125888207421703e+00 9.6597603258439886e+00 1.5891530835982245e+01 1 5 0
253 444 2 -8.2999999999999996e-01 1.7820829186082943e+00 9.6725821571424149e+00 1.3839270253770289e+01 -1 2 0
3036 444 1 4.1499999999999998e-01 5.9269796113766429e+00 7.4129967392272844e-01 1.4199651079946337e+01 -4 1 0
1902 444 1 4.1499999999999998e-01 2.8099767470021733e+00 7.4900175242765439e+00 1.6128010480421061e+01 4 -1 0
4621 444 2 -8.2999999999999996e-01 8.4611430726419490e-01 6.3097001778192228e+00 1.4334744724829642e+01 2 -1 0
2365 444 2 -8.2999999999999996e-01 2.2339099247262859e+00 5.0582302804914592e-01 1.4396655827877394e+01 3 3 0
3234 444 1 4.1499999999999998e-01 4.4171361462618632e+00 1.1049852977573691e+01 1.5821002252839206e+01 1 5 0
138 444 1 4.1499999999999998e-01 3.0531684453882113e-01 3.5560877805437379e+00 1.4687646177765306e+01 -2 -1 0
4156 444 2 -8.2999999999999996e-01 2.2370676349712486e+00 1.5365623890333710e-01 1.0488764965398229e+01 3 1 0
641 444 1 4.1499999999999998e-01 7.3025724992625776e+00 1.0499946728206726e+00 1.1896526621601621e+01 -2 6 0
3035 444 1 4.1499999999999998e-01 7.1619998462161751e+00 6.9823544710153704e-03 1.3722787923797522e+01 -4 1 0
4623 444 1 4.1499999999999998e-01 8.9553422253168713e-01 5.4728229132951967e+00 1.3872764141872176e+01 2 -1 0
4080 444 1 4.1499999999999998e-01 3.8779799471542629e+00 9.5264034485353133e-01 1.5010914426763367e+01 -1 1 0
254 444 1 4.1499999999999998e-01 9.7223904573728381e-01 9.4661390826613676e+00 1.3372616157701707e+01 -1 2 0
4622 444 1 4.1499999999999998e-01 1.6992830109264270e+00 6.7171083336474755e+00 1.4185233310563945e+01 2 -1 0
3034 444 2 -8.2999999999999996e-01 6.5962830635290395e+00 7.5075248892637281e-01 1.3515417557554025e+01 -4 1 0
2377 444 2 -8.2999999999999996e-01 6.0899991090181906e+00 1.1325464610711611e+01 1.1725061254290051e+01 3 -3 0
2991 444 1 4.1499999999999998e-01 2.7052646040903117e+00 1.1089903057662253e+01 1.3132672214962684e+01 -3 4 0
4078 444 2 -8.2999999999999996e-01 4.7550244998151907e+00 7.2788446989473077e-01 1.5321574284607216e+01 -1 1 0
2379 444 1 4.1499999999999998e-01 6.8135275083089013e+00 1.1376526560747651e+01 1.1100455869039790e+01 3 -3 0
4008 444 1 4.1499999999999998e-01 5.1427792270791803e+00 1.5594724943440497e-01 1.0951262566528724e+01 -2 -4 0
3908 444 1 4.1499999999999998e-01 1.4762177384049732e+01 5.3346502120038615e-02 1.0061464953257333e+01 0 -1 0
4753 444 2 -8.2999999999999996e-01 7.6157860780861881e+00 1.1369494824471657e+01 1.5144849949512363e+01 -1 2 0
3675 444 1 4.1499999999999998e-01 8.7236896446556162e+00 7.2871043174346317e+00 1.5725211840546836e+01 0 -2 0
2472 444 1 4.1499999999999998e-01 1.4270931887109528e+01 1.0559708081687296e+01 1.0151238310091154e+01 1 -3 0
5745 444 1 4.1499999999999998e-01 8.6862203862662337e+00 9.6321924295794350e+00 1.0996543653197039e+01 -2 -2 0
3673 444 2 -8.2999999999999996e-01 9.5706739367202278e+00 7.6945019698601280e+00 1.5906531061405977e+01 0 -2 0
4287 444 1 4.1499999999999998e-01 9.1228035254340671e+00 1.0903780996005587e+01 1.4007847988336003e+01 -1 3 0
3236 444 1 4.1499999999999998e-01 8.0837459864556713e+00 6.2120791363766639e+00 1.1191591373236299e+01 3 -4 0
5188 444 2 -8.2999999999999996e-01 1.3140904655940538e+01 2.6004455557328665e+00 1.5606022833547545e+01 1 -2 0
353 444 1 4.1499999999999998e-01 9.6387439124623313e+00 4.6431346117757606e+00 1.5490238296091508e+01 -2 -4 0
248 444 1 4.1499999999999998e-01 1.1579832958236365e+01 3.7795427288654162e+00 1.3222295768425393e+01 4 -4 0
3058 444 2 -8.2999999999999996e-01 1.3953068797424802e+01 8.1158344422456032e+00 1.0293522569319650e+01 3 3 0
1665 444 1 4.1499999999999998e-01 1.2764607432387995e+01 2.8144832984619876e+00 1.1376239358347920e+01 -3 0 0
5931 444 1 4.1499999999999998e-01 1.0107493457456419e+01 7.3079004717341256e+00 1.1665947015523901e+01 3 -2 0
5929 444 2 -8.2999999999999996e-01 9.9526985056358139e+00 6.8253941478397477e+00 1.0853875956009807e+01 3 -2 0
1663 444 2 -8.2999999999999996e-01 1.2896116047492358e+01 2.9784045291578467e+00 1.0442393735742883e+01 -3 0 0
5930 444 1 4.1499999999999998e-01 1.0822594192546052e+01 6.5393477521915573e+00 1.0575142417556487e+01 3 -2 0
5744 444 1 4.1499999999999998e-01 9.6177875459549131e+00 8.9495318179032566e+00 1.0017742154131888e+01 -2 -2 0
5743 444 2 -8.2999999999999996e-01 9.2999266180687190e+00 9.8121520464638756e+00 1.0284356004965083e+01 -2 -2 0
265 444 2 -8.2999999999999996e-01 1.2372526788520229e+01 5.9107340049439818e+00 1.0274136409458265e+01 0 3 0
266 444 1 4.1499999999999998e-01 1.2919464158132191e+01 5.1821569598323354e+00 9.9804241151093116e+00 0 3 0
267 444 1 4.1499999999999998e-01 1.2923488829459449e+01 6.6852462122084670e+00 1.0160983693897251e+01 0 3 0
5484 444 1 4.1499999999999998e-01 1.1339718394877460e+01 8.5033306660898056e+00 1.3331440389263131e+01 0 3 0
256 444 2 -8.2999999999999996e-01 9.7074104366375185e+00 8.0333999441493429e+00 1.3205520039747299e+01 5 -1 0
5482 444 2 -8.2999999999999996e-01 1.2288775675814891e+01 8.6279189269304855e+00 1.3330743230414996e+01 0 3 0
258 444 1 4.1499999999999998e-01 9.7138605020890232e+00 7.7884265741422949e+00 1.4130819080038211e+01 5 -1 0
3060 444 1 4.1499999999999998e-01 1.3436354012683459e+01 8.8279249434718103e+00 9.9164750540760789e+00 3 3 0
247 444 2 -8.2999999999999996e-01 1.2060281835178143e+01 2.9973652027840485e+00 1.2951004243128633e+01 4 -4 0
257 444 1 4.1499999999999998e-01 9.5615013888751328e+00 8.9794084611232616e+00 1.3208732267411721e+01 5 -1 0
352 444 2 -8.2999999999999996e-01 9.7489549181494901e+00 4.7917844425963247e+00 1.4551095630192012e+01 -2 -4 0
354 444 1 4.1499999999999998e-01 8.8858168969161664e+00 4.6145980435158815e+00 1.4177157135298144e+01 -2 -4 0
5189 444 1 4.1499999999999998e-01 1.2338170400769700e+01 2.4412078381484288e+00 1.5109541518987719e+01 1 -2 0
1512 444 1 4.1499999999999998e-01 1.3531491200499369e+01 1.8429485131769356e+00 1.3018094044615433e+01 2 4 0
3903 444 1 4.1499999999999998e-01 1.1173373520246342e+01 4.5799427693878618e-02 1.4268751729043567e+01 0 -1 0
5741 444 1 4.1499999999999998e-01 1.1438368703613069e+01 1.0649448330878183e+01 1.0695253782337300e+01 2 -5 0
249 444 1 4.1499999999999998e-01 1.1379569224743989e+01 2.3699722906098919e+00 1.2707610565614280e+01 4 -4 0
1664 444 1 4.1499999999999998e-01 1.3456435587123330e+01 2.2598622181617007e+00 1.0149183739936049e+01 -3 0 0
2550 444 1 4.1499999999999998e-01 8.6989071085718397e+00 2.7078548880571276e+00 1.4652431092334213e+01 0 -1 0
5838 444 1 4.1499999999999998e-01 1.0841729825769530e+01 4.0114869588090016e+00 1.0087209527102743e+01 -4 2 0
2295 444 1 4.1499999999999998e-01 1.2650404181827792e+01 5.9230242355336831e+00 1.1959973011321635e+01 1 4 0
5836 444 2 -8.2999999999999996e-01 9.9109721855589274e+00 4.1279972143922814e+00 1.0277859689236356e+01 -4 2 0
2548 444 2 -8.2999999999999996e-01 8.7665228324203532e+00 1.8896921094605770e+00 1.5144640225030443e+01 0 -1 0
5837 444 1 4.1499999999999998e-01 9.8383522742499192e+00 5.0354384140137762e+00 1.0573678633107136e+01 -4 2 0
2255 444 1 4.1499999999999998e-01 8.3069292143021958e+00 3.6046823355188855e+00 1.0069868949915742e+01 -2 2 0
1510 444 2 -8.2999999999999996e-01 1.4031736283196059e+01 1.0474482579453313e+00 1.3200211753953317e+01 2 4 0
5740 444 2 -8.2999999999999996e-01 1.2343320486918454e+01 1.0338146833272432e+01 1.0714895241593384e+01 2 -5 0
5742 444 1 4.1499999999999998e-01 1.2495172763066877e+01 1.0099355565071413e+01 1.1629308590523586e+01 2 -5 0
3360 444 1 4.1499999999999998e-01 1.4067668065423513e+01 3.7347133644876216e+00 1.4270240328916012e+01 0 -2 0
3358 444 2 -8.2999999999999996e-01 1.4770077266990048e+01 4.1993038715005904e+00 1.3815257977203624e+01 0 -2 0
2248 444 2 -8.2999999999999996e-01 1.0171815003647263e+01 1.7902626541577158e+00 1.1951580453563873e+01 0 -3 0
2250 444 1 4.1499999999999998e-01 9.3234079538151899e+00 1.3751097151324876e+00 1.2106775986457704e+01 0 -3 0
2249 444 1 4.1499999999999998e-01 1.0018101200978451e+01 2.3825584156694037e+00 1.1215516309099765e+01 0 -3 0
4285 444 2 -8.2999999999999996e-01 9.5450883048961455e+00 1.0689310155426707e+01 1.3176036229211382e+01 -1 3 0
3907 444 2 -8.2999999999999996e-01 1.4174274019382942e+01 7.7133999020607347e-01 9.8267589810579814e+00 0 -1 0
2549 444 1 4.1499999999999998e-01 8.0796817759125403e+00 1.3321979497166514e+00 1.4779014866748847e+01 0 -1 0
3359 444 1 4.1499999999999998e-01 1.4321589556327492e+01 4.8786109044913433e+00 1.3311638448697586e+01 0 -2 0
5483 444 1 4.1499999999999998e-01 1.2409258184581725e+01 9.5550812871570407e+00 1.3535892843669508e+01 0 3 0
1511 444 1 4.1499999999999998e-01 1.4946531965400174e+01 1.3279954062948820e+00 1.3174231322200104e+01 2 4 0
4442 444 1 4.1499999999999998e-01 9.5344379516398590e+00 1.1463633192165723e+01 1.6079068996077044e+01 -1 3 0
2470 444 2 -8.2999999999999996e-01 1.4996091328318689e+01 1.1099167854367144e+01 9.8360260180092070e+00 1 -3 0
4286 444 1 4.1499999999999998e-01 9.1491192123943819e+00 1.1289416384183273e+01 1.2544123756358106e+01 -1 3 0
5190 444 1 4.1499999999999998e-01 1.3568694615812580e+01 1.7453557842345775e+00 1.5651293658691145e+01 1 -2 0
3901 444 2 -8.2999999999999996e-01 1.1107997842080954e+01 7.6982855508966253e-01 1.4891439568692034e+01 0 -1 0
3059 444 1 4.1499999999999998e-01 1.4849017095166522e+01 8.2909751440212940e+00 1.0005712905551221e+01 3 3 0
642 444 1 4.1499999999999998e-01 7.6444033028341520e+00 6.7680913691021985e-02 1.0796477962476693e+01 -2 6 0
2294 444 1 4.1499999999999998e-01 1.2875936767469017e+01 6.7884678877469797e+00 1.3181463086262923e+01 1 4 0
2032 444 2 -8.2999999999999996e-01 1.2009536041718954e+01 9.5862461699706323e+00 1.6152099905992348e+01 0 2 0
640 444 2 -8.2999999999999996e-01 7.6370032255260432e+00 1.0027701120013519e+00 1.1000893337840536e+01 -2 6 0
3723 444 1 4.1499999999999998e-01 1.1227208891967301e+01 1.1189098790852979e+01 1.3638553472051051e+01 1 -2 0
572 444 1 4.1499999999999998e-01 1.4466218991406199e+01 8.2839571798472864e+00 1.2606589002620522e+01 2 0 0
4569 444 1 4.1499999999999998e-01 1.3732806899478748e+01 1.1393162572298257e+01 1.4651749675612482e+01 2 0 0
2293 444 2 -8.2999999999999996e-01 1.3309394585954372e+01 6.1488498181507021e+00 1.2616453779067266e+01 1 4 0
3909 444 1 4.1499999999999998e-01 1.3302637293132321e+01 3.7579998413692001e-01 9.8213364842855260e+00 0 -1 0
3902 444 1 4.1499999999999998e-01 1.0174940287239268e+01 9.8208703756978666e-01 1.4915584772280024e+01 0 -1 0
4568 444 1 4.1499999999999998e-01 1.4485258587275988e+01 1.0924300143510674e+01 1.5878892985334325e+01 2 0 0
4443 444 1 4.1499999999999998e-01 1.0922866143221004e+01 1.0886159637618860e+01 1.5903892601913702e+01 -1 3 0
3721 444 2 -8.2999999999999996e-01 1.2126528286601673e+01 1.1354806568991039e+01 1.3355715001253786e+01 1 -2 0
4567 444 2 -8.2999999999999996e-01 1.4325924414425918e+01 1.1698061650824741e+01 1.5338394122123770e+01 2 0 0
4441 444 2 -8.2999999999999996e-01 1.0406987794559022e+01 1.1677351127749652e+01 1.5748594642721903e+01 -1 3 0
5735 444 1 4.1499999999999998e-01 1.0224812470564128e+01 1.1705804813465406e+01 9.6584007618905314e+00 -5 1 0
558 444 1 4.1499999999999998e-01 6.4084517976155517e+00 6.4418693559937514e+00 1.6607197370086055e+01 -1 0 0
2817 444 1 4.1499999999999998e-01 4.6618551324385686e+00 3.9744254863715631e+00 1.6858316899568123e+01 -3 1 0
2815 444 2 -8.2999999999999996e-01 5.4644170170690245e+00 4.4506502128419942e+00 1.7071240205901898e+01 -3 1 0
4596 444 1 4.1499999999999998e-01 4.0770601097990200e-01 9.3984075191798166e-01 1.9618371282979588e+01 4 -3 0
5643 444 1 4.1499999999999998e-01 1.8088580696744803e+00 1.0956364180106117e+01 1.6661219929893928e+01 2 0 0
2821 444 2 -8.2999999999999996e-01 2.1134072072200716e-01 5.8030462748117060e+00 2.1594641812500850e+01 4 -5 0
4973 444 1 4.1499999999999998e-01 2.4898006000851720e+00 5.9122795626632270e+00 1.8776088287745573e+01 0 -4 0
2822 444 1 4.1499999999999998e-01 1.4415781192470375e-01 5.3275531951087265e+00 2.2422666373284656e+01 4 -5 0
753 444 1 4.1499999999999998e-01 1.1935102743542727e+00 4.2399733096991694e+00 1.8444126015863205e+01 1 3 0
5641 444 2 -8.2999999999999996e-01 1.2545422718722530e+00 1.0184226691218967e+01 1.6548217375999304e+01 2 0 0
1900 444 2 -8.2999999999999996e-01 2.9019626270403514e+00 8.1969090538119254e+00 1.6766818000913663e+01 4 -1 0
3454 444 2 -8.2999999999999996e-01 3.3038025026558535e+00 3.1535991428971131e+00 1.6872058920946127e+01 -2 1 0
3455 444 1 4.1499999999999998e-01 2.6133739446978113e+00 3.4392510302907957e+00 1.7470342543322769e+01 -2 1 0
2823 444 1 4.1499999999999998e-01 1.1490483280166117e+00 5.8203486316802859e+00 2.1403233713998233e+01 4 -5 0
1901 444 1 4.1499999999999998e-01 3.2882406628107654e+00 7.7770431895457230e+00 1.7535410686286280e+01 4 -1 0
4637 444 1 4.1499999999999998e-01 6.5462940146847952e+00 7.8851995978495308e+00 1.8599130850376810e+01 -1 -1 0
4972 444 2 -8.2999999999999996e-01 1.5411816392314237e+00 5.8382086269299194e+00 1.8671841298601819e+01 0 -4 0
5642 444 1 4.1499999999999998e-01 1.8689621684581230e+00 9.4709752186950116e+00 1.6375033675355986e+01 2 0 0
3456 444 1 4.1499999999999998e-01 3.2894850619527101e+00 2.1981290125900417e+00 1.6927769847076991e+01 -2 1 0
88 444 2 -8.2999999999999996e-01 7.1652796292735230e+00 1.2913452103336602e+00 2.0315424572177058e+01 -2 2 0
5392 444 2 -8.2999999999999996e-01 4.2597395960465869e+00 6.4419709999645978e+00 1.8470091876738973e+01 1 2 0