LAMMPS data file via write_data, version 11 Aug 2017, timestep = 5000000

7166 atoms
4 atom types
4000 bonds
1 bond types
2000 angles
1 angle types

0.0000000000000000e+00 4.5679949999999998e+01 xlo xhi
0.0000000000000000e+00 4.6885919999999999e+01 ylo yhi
0.0000000000000000e+00 6.5000000000000000e+01 zlo zhi

Masses

1 1.0079
2 15.9994
3 18.9984
4 107.868

Bond Coeffs # harmonic

1 450 0.9572

Angle Coeffs # harmonic

1 55 104.52

Atoms # full

6015 444 4 0.0000000000000000e+00 1.6907200000000000e+00 0.0000000000000000e+00 0.0000000000000000e+00 0 0 0
6016 444 4 0.0000000000000000e+00 4.2285000000000004e+00 1.4651900000000000e+00 0.0000000000000000e+00 0 0 0
6017 444 4 4.8610000000000000e-02 1.6907700000000001e+00 0.0000000000000000e+00 7.1781499999999996e+00 0 0 0
6018 444 4 4.8610000000000000e-02 4.2285500000000003e+00 1.4651900000000000e+00 7.1781499999999996e+00 0 0 0
6019 444 4 0.0000000000000000e+00 2.5366499999999998e+00 1.4651900000000000e+00 2.3926400000000001e+00 0 0 0
6020 444 4 0.0000000000000000e+00 5.0744199999999999e+00 0.0000000000000000e+00 2.3926400000000001e+00 0 0 0
6021 444 4 0.0000000000000000e+00 8.4509000000000001e-01 1.4651900000000000e+00 4.7824200000000001e+00 0 0 0
6022 444 4 0.0000000000000000e+00 3.3828600000000000e+00 0.0000000000000000e+00 4.7824499999999999e+00 0 0 0
6023 444 4 0.0000000000000000e+00 1.6907200000000000e+00 2.9303699999999999e+00 0.0000000000000000e+00 0 0 0
6024 444 4 0.0000000000000000e+00 4.2285000000000004e+00 4.3955599999999997e+00 0.0000000000000000e+00 0 0 0
6025 444 4 4.8610000000000000e-02 1.6907700000000001e+00 2.9303699999999999e+00 7.1781899999999998e+00 0 0 0
6026 444 4 4.8610000000000000e-02 4.2285500000000003e+00 4.3955599999999997e+00 7.1781600000000001e+00 0 0 0
6027 444 4 0.0000000000000000e+00 2.5366499999999998e+00 4.3955599999999997e+00 2.3926400000000001e+00 0 0 0
6028 444 4 0.0000000000000000e+00 5.0744199999999999e+00 2.9303699999999999e+00 2.3926400000000001e+00 0 0 0
6029 444 4 0.0000000000000000e+00 8.4509000000000001e-01 4.3955599999999997e+00 4.7824499999999999e+00 0 0 0
6030 444 4 0.0000000000000000e+00 3.3828700000000000e+00 2.9303699999999999e+00 4.7824400000000002e+00 0 0 0
6031 444 4 0.0000000000000000e+00 1.6907200000000000e+00 5.8607399999999998e+00 0.0000000000000000e+00 0 0 0
6032 444 4 0.0000000000000000e+00 4.2285000000000004e+00 7.3259299999999996e+00 0.0000000000000000e+00 0 0 0
6033 444 4 4.8610000000000000e-02 1.6907700000000001e+00 5.8607399999999998e+00 7.1781499999999996e+00 0 0 0
6034 444 4 4.8610000000000000e-02 4.2285500000000003e+00 7.3259299999999996e+00 7.1781499999999996e+00 0 0 0
6035 444 4 0.0000000000000000e+00 2.5366499999999998e+00 7.3259299999999996e+00 2.3926400000000001e+00 0 0 0
6036 444 4 0.0000000000000000e+00 5.0744199999999999e+00 5.8607399999999998e+00 2.3926400000000001e+00 0 0 0
6037 444 4 0.0000000000000000e+00 8.4509000000000001e-01 7.3259299999999996e+00 4.7824200000000001e+00 0 0 0
6038 444 4 0.0000000000000000e+00 3.3828600000000000e+00 5.8607399999999998e+00 4.7824499999999999e+00 0 0 0
6143 444 4 0.0000000000000000e+00 6.7662699999999996e+00 0.0000000000000000e+00 0.0000000000000000e+00 0 0 0
6145 444 4 4.8610000000000000e-02 6.7663200000000003e+00 0.0000000000000000e+00 7.1781499999999996e+00 0 0 0
6147 444 4 0.0000000000000000e+00 7.6121999999999996e+00 1.4651900000000000e+00 2.3926400000000001e+00 0 0 0
6149 444 4 0.0000000000000000e+00 5.9206399999999997e+00 1.4651900000000000e+00 4.7824200000000001e+00 0 0 0
6151 444 4 0.0000000000000000e+00 6.7662699999999996e+00 2.9303699999999999e+00 0.0000000000000000e+00 0 0 0
6153 444 4 4.8610000000000000e-02 6.7663200000000003e+00 2.9303699999999999e+00 7.1781899999999998e+00 0 0 0
6155 444 4 0.0000000000000000e+00 7.6121999999999996e+00 4.3955599999999997e+00 2.3926400000000001e+00 0 0 0
6157 444 4 0.0000000000000000e+00 5.9206399999999997e+00 4.3955599999999997e+00 4.7824499999999999e+00 0 0 0
6159 444 4 0.0000000000000000e+00 6.7662699999999996e+00 5.8607399999999998e+00 0.0000000000000000e+00 0 0 0
6161 444 4 4.8610000000000000e-02 6.7663200000000003e+00 5.8607399999999998e+00 7.1781499999999996e+00 0 0 0
6163 444 4 0.0000000000000000e+00 7.6121999999999996e+00 7.3259299999999996e+00 2.3926400000000001e+00 0 0 0
6165 444 4 0.0000000000000000e+00 5.9206399999999997e+00 7.3259299999999996e+00 4.7824200000000001e+00 0 0 0
6039 444 4 0.0000000000000000e+00 1.6907200000000000e+00 8.7911099999999998e+00 0.0000000000000000e+00 0 0 0
6040 444 4 0.0000000000000000e+00 4.2285000000000004e+00 1.0256300000000000e+01 0.0000000000000000e+00 0 0 0
6041 444 4 4.8610000000000000e-02 1.6907700000000001e+00 8.7911099999999998e+00 7.1781899999999998e+00 0 0 0
6042 444 4 4.8610000000000000e-02 4.2285500000000003e+00 1.0256300000000000e+01 7.1781600000000001e+00 0 0 0
6043 444 4 0.0000000000000000e+00 2.5366499999999998e+00 1.0256300000000000e+01 2.3926400000000001e+00 0 0 0
6044 444 4 0.0000000000000000e+00 5.0744199999999999e+00 8.7911099999999998e+00 2.3926400000000001e+00 0 0 0
6045 444 4 0.0000000000000000e+00 8.4509000000000001e-01 1.0256300000000000e+01 4.7824499999999999e+00 0 0 0
6046 444 4 0.0000000000000000e+00 3.3828700000000000e+00 8.7911099999999998e+00 4.7824400000000002e+00 0 0 0
6167 444 4 0.0000000000000000e+00 6.7662699999999996e+00 8.7911099999999998e+00 0.0000000000000000e+00 0 0 0
6169 444 4 4.8610000000000000e-02 6.7663200000000003e+00 8.7911099999999998e+00 7.1781899999999998e+00 0 0 0
6171 444 4 0.0000000000000000e+00 7.6121999999999996e+00 1.0256300000000000e+01 2.3926400000000001e+00 0 0 0
6173 444 4 0.0000000000000000e+00 5.9206399999999997e+00 1.0256300000000000e+01 4.7824499999999999e+00 0 0 0
6144 444 4 0.0000000000000000e+00 9.3040500000000002e+00 1.4651900000000000e+00 0.0000000000000000e+00 0 0 0
6146 444 4 4.8610000000000000e-02 9.3041000000000000e+00 1.4651900000000000e+00 7.1781499999999996e+00 0 0 0
6148 444 4 0.0000000000000000e+00 1.0149970000000000e+01 0.0000000000000000e+00 2.3926400000000001e+00 0 0 0
6150 444 4 0.0000000000000000e+00 8.4584100000000007e+00 0.0000000000000000e+00 4.7824499999999999e+00 0 0 0
6152 444 4 0.0000000000000000e+00 9.3040500000000002e+00 4.3955599999999997e+00 0.0000000000000000e+00 0 0 0
6154 444 4 4.8610000000000000e-02 9.3041000000000000e+00 4.3955599999999997e+00 7.1781600000000001e+00 0 0 0
6156 444 4 0.0000000000000000e+00 1.0149970000000000e+01 2.9303699999999999e+00 2.3926400000000001e+00 0 0 0
6158 444 4 0.0000000000000000e+00 8.4584200000000003e+00 2.9303699999999999e+00 4.7824400000000002e+00 0 0 0
6160 444 4 0.0000000000000000e+00 9.3040500000000002e+00 7.3259299999999996e+00 0.0000000000000000e+00 0 0 0
6162 444 4 4.8610000000000000e-02 9.3041000000000000e+00 7.3259299999999996e+00 7.1781499999999996e+00 0 0 0
6164 444 4 0.0000000000000000e+00 1.0149970000000000e+01 5.8607399999999998e+00 2.3926400000000001e+00 0 0 0
6166 444 4 0.0000000000000000e+00 8.4584100000000007e+00 5.8607399999999998e+00 4.7824499999999999e+00 0 0 0
6277 444 4 0.0000000000000000e+00 1.0996190000000000e+01 1.4651900000000000e+00 4.7824200000000001e+00 0 0 0
6285 444 4 0.0000000000000000e+00 1.0996190000000000e+01 4.3955599999999997e+00 4.7824499999999999e+00 0 0 0
6293 444 4 0.0000000000000000e+00 1.0996190000000000e+01 7.3259299999999996e+00 4.7824200000000001e+00 0 0 0
6168 444 4 0.0000000000000000e+00 9.3040500000000002e+00 1.0256300000000000e+01 0.0000000000000000e+00 0 0 0
6170 444 4 4.8610000000000000e-02 9.3041000000000000e+00 1.0256300000000000e+01 7.1781600000000001e+00 0 0 0
6172 444 4 0.0000000000000000e+00 1.0149970000000000e+01 8.7911099999999998e+00 2.3926400000000001e+00 0 0 0
6174 444 4 0.0000000000000000e+00 8.4584200000000003e+00 8.7911099999999998e+00 4.7824400000000002e+00 0 0 0
6301 444 4 0.0000000000000000e+00 1.0996190000000000e+01 1.0256300000000000e+01 4.7824499999999999e+00 0 0 0
6271 444 4 0.0000000000000000e+00 1.1841820000000000e+01 0.0000000000000000e+00 0.0000000000000000e+00 0 0 0
6272 444 4 0.0000000000000000e+00 1.4379600000000000e+01 1.4651900000000000e+00 0.0000000000000000e+00 0 0 0
6273 444 4 4.8610000000000000e-02 1.1841870000000000e+01 0.0000000000000000e+00 7.1781499999999996e+00 0 0 0
6274 444 4 4.8610000000000000e-02 1.4379650000000000e+01 1.4651900000000000e+00 7.1781499999999996e+00 0 0 0
6275 444 4 0.0000000000000000e+00 1.2687749999999999e+01 1.4651900000000000e+00 2.3926400000000001e+00 0 0 0
6276 444 4 0.0000000000000000e+00 1.5225519999999999e+01 0.0000000000000000e+00 2.3926400000000001e+00 0 0 0
6278 444 4 0.0000000000000000e+00 1.3533960000000000e+01 0.0000000000000000e+00 4.7824499999999999e+00 0 0 0
6279 444 4 0.0000000000000000e+00 1.1841820000000000e+01 2.9303699999999999e+00 0.0000000000000000e+00 0 0 0
6280 444 4 0.0000000000000000e+00 1.4379600000000000e+01 4.3955599999999997e+00 0.0000000000000000e+00 0 0 0
6281 444 4 4.8610000000000000e-02 1.1841870000000000e+01 2.9303699999999999e+00 7.1781899999999998e+00 0 0 0
6282 444 4 4.8610000000000000e-02 1.4379650000000000e+01 4.3955599999999997e+00 7.1781600000000001e+00 0 0 0
6283 444 4 0.0000000000000000e+00 1.2687749999999999e+01 4.3955599999999997e+00 2.3926400000000001e+00 0 0 0
6284 444 4 0.0000000000000000e+00 1.5225519999999999e+01 2.9303699999999999e+00 2.3926400000000001e+00 0 0 0
6286 444 4 0.0000000000000000e+00 1.3533970000000000e+01 2.9303699999999999e+00 4.7824400000000002e+00 0 0 0
6287 444 4 0.0000000000000000e+00 1.1841820000000000e+01 5.8607399999999998e+00 0.0000000000000000e+00 0 0 0
6288 444 4 0.0000000000000000e+00 1.4379600000000000e+01 7.3259299999999996e+00 0.0000000000000000e+00 0 0 0
6289 444 4 4.8610000000000000e-02 1.1841870000000000e+01 5.8607399999999998e+00 7.1781499999999996e+00 0 0 0
6290 444 4 4.8610000000000000e-02 1.4379650000000000e+01 7.3259299999999996e+00 7.1781499999999996e+00 0 0 0
6291 444 4 0.0000000000000000e+00 1.2687749999999999e+01 7.3259299999999996e+00 2.3926400000000001e+00 0 0 0
6292 444 4 0.0000000000000000e+00 1.5225519999999999e+01 5.8607399999999998e+00 2.3926400000000001e+00 0 0 0
6294 444 4 0.0000000000000000e+00 1.3533960000000000e+01 5.8607399999999998e+00 4.7824499999999999e+00 0 0 0
6295 444 4 0.0000000000000000e+00 1.1841820000000000e+01 8.7911099999999998e+00 0.0000000000000000e+00 0 0 0
6296 444 4 0.0000000000000000e+00 1.4379600000000000e+01 1.0256300000000000e+01 0.0000000000000000e+00 0 0 0
6297 444 4 4.8610000000000000e-02 1.1841870000000000e+01 8.7911099999999998e+00 7.1781899999999998e+00 0 0 0
6298 444 4 4.8610000000000000e-02 1.4379650000000000e+01 1.0256300000000000e+01 7.1781600000000001e+00 0 0 0
6299 444 4 0.0000000000000000e+00 1.2687749999999999e+01 1.0256300000000000e+01 2.3926400000000001e+00 0 0 0
6300 444 4 0.0000000000000000e+00 1.5225519999999999e+01 8.7911099999999998e+00 2.3926400000000001e+00 0 0 0
6302 444 4 0.0000000000000000e+00 1.3533970000000000e+01 8.7911099999999998e+00 4.7824400000000002e+00 0 0 0
3238 444 2 -8.2999999999999996e-01 2.2916519191369398e+00 5.2935866622490382e+00 9.8806525738228181e+00 3 1 0
1735 444 2 -8.2999999999999996e-01 6.1200682524039252e+00 8.3506982303683372e+00 1.0207370873998155e+01 -1 -2 0
1737 444 1 4.1499999999999998e-01 6.4330588467892769e+00 7.5387938584390817e+00 9.8085223328834363e+00 -1 -2 0
1600 444 2 -8.2999999999999996e-01 4.9952067765430934e+00 4.8608379403187572e+00 1.0298009615934932e+01 2 2 0
1601 444 1 4.1499999999999998e-01 5.6844232674665545e+00 5.3435868764022230e+00 9.8417574936942422e+00 2 2 0
1736 444 1 4.1499999999999998e-01 5.1794332302763095e+00 8.2149710055733447e+00 1.0321457448502739e+01 -1 -2 0
3239 444 1 4.1499999999999998e-01 3.2251345290638489e+00 5.1513495138427752e+00 1.0037530410617565e+01 3 1 0
3240 444 1 4.1499999999999998e-01 1.8938971558595403e+00 4.4313526707027400e+00 1.0001381817535767e+01 3 1 0
3989 444 1 4.1499999999999998e-01 3.6234118986817374e+00 3.3392592100942209e+00 1.2383145635026137e+01 -1 -2 0
3988 444 2 -8.2999999999999996e-01 4.4953445304495627e+00 2.9652982284347602e+00 1.2510106976942094e+01 -1 -2 0
4352 444 1 4.1499999999999998e-01 2.9799832029308346e+00 6.3160943310764317e-01 1.5882359296636038e+01 0 -3 0
3990 444 1 4.1499999999999998e-01 4.3688887163650136e+00 2.2783881753456092e+00 1.3164626343483871e+01 -1 -2 0
1602 444 1 4.1499999999999998e-01 5.2694376526878974e+00 3.9451856707941930e+00 1.0246919387245132e+01 2 2 0
1673 444 1 4.1499999999999998e-01 5.6352255170367362e+00 2.4537216917661042e+00 1.1505978229174731e+01 2 -2 0
2858 444 1 4.1499999999999998e-01 2.8479801796511448e+00 7.1186781028718817e+00 1.0444910247984906e+01 3 1 0
2857 444 2 -8.2999999999999996e-01 3.5475795931522454e+00 7.7067372694964540e+00 1.0729478223302912e+01 3 1 0
2859 444 1 4.1499999999999998e-01 3.3377712018226919e+00 7.9053808675765396e+00 1.1642031351610932e+01 3 1 0
3446 444 1 4.1499999999999998e-01 6.4584772770290284e+00 1.0155241181089632e+01 1.0716307212507365e+01 3 -3 0
1674 444 1 4.1499999999999998e-01 5.8141913926648749e+00 1.6513524789453198e+00 1.0234730800585167e+01 2 -2 0
1672 444 2 -8.2999999999999996e-01 6.1261625940855797e+00 2.4366326193154340e+00 1.0684442707584628e+01 2 -2 0
3092 444 1 4.1499999999999998e-01 6.2295855976555519e+00 5.5024484176976545e+00 1.5747458648851349e+01 -1 -1 0
4351 444 2 -8.2999999999999996e-01 2.7560484090229598e+00 1.0791018078979147e+00 1.5066371803823166e+01 0 -3 0
5167 444 2 -8.2999999999999996e-01 1.6519700908937751e+00 2.8407318836358426e+00 1.0499906325892450e+01 -2 0 0
481 444 2 -8.2999999999999996e-01 4.1989720465298747e-01 7.1349398967924351e+00 1.0437003547376728e+01 -2 0 0
3405 444 1 4.1499999999999998e-01 4.7277368025327595e+00 5.5280480550698057e+00 1.1803667359306594e+01 3 -1 0
3404 444 1 4.1499999999999998e-01 4.2194864231532589e+00 6.5489150742926139e+00 1.2799362655880858e+01 3 -1 0
3403 444 2 -8.2999999999999996e-01 4.9402701135317439e+00 5.9391624759853698e+00 1.2641550374161397e+01 3 -1 0
5168 444 1 4.1499999999999998e-01 1.4566936117111655e+00 2.8618536659526481e+00 1.1436737892257806e+01 -2 0 0
5297 444 1 4.1499999999999998e-01 5.1696581829313484e+00 1.4299187126493946e+00 1.5647762702741108e+01 -1 6 0
1136 444 1 4.1499999999999998e-01 6.6335349309066496e+00 6.1531070126395697e+00 1.2336781262224397e+01 -1 -2 0
405 444 1 4.1499999999999998e-01 4.5182751602338884e+00 8.6986134682134324e+00 1.3640954118257335e+01 -4 0 0
1592 444 1 4.1499999999999998e-01 1.6603563299968338e+00 1.0071892325207390e+01 1.0474325765141375e+01 -6 0 0
404 444 1 4.1499999999999998e-01 3.5240433710382248e+00 7.9227468238032692e+00 1.4478467885391678e+01 -4 0 0
5296 444 2 -8.2999999999999996e-01 5.7676067970625304e+00 1.6542191623306230e+00 1.4934755772445373e+01 -1 6 0
2007 444 1 4.1499999999999998e-01 7.2825176556780411e+00 3.2828924195974305e+00 1.0263474469497446e+01 1 8 0
403 444 2 -8.2999999999999996e-01 3.7431520615805778e+00 8.1411641161929360e+00 1.3572643886197064e+01 -4 0 0
166 444 2 -8.2999999999999996e-01 5.7844175521640890e+00 9.5591277689635170e+00 1.3545332292018879e+01 -1 1 0
482 444 1 4.1499999999999998e-01 1.0753583018317596e+00 6.5098631381298437e+00 1.0127355948027533e+01 -2 0 0
145 444 2 -8.2999999999999996e-01 6.2923566698261650e+00 4.4558066848390370e+00 1.4333791092994920e+01 0 -2 0
147 444 1 4.1499999999999998e-01 5.9024960812150082e+00 3.5851606763619879e+00 1.4412632483542534e+01 0 -2 0
5169 444 1 4.1499999999999998e-01 2.1521917310832404e+00 2.0339203070781062e+00 1.0377160354523626e+01 -2 0 0
146 444 1 4.1499999999999998e-01 5.7466020190462581e+00 4.9056218314048508e+00 1.3688771756733773e+01 0 -2 0
2062 444 2 -8.2999999999999996e-01 2.0615458000450966e+00 3.7074557631386171e+00 1.3264888241952024e+01 -1 -2 0
4353 444 1 4.1499999999999998e-01 2.1878493493995923e+00 1.8005275923763371e+00 1.5336420322324873e+01 0 -3 0
3445 444 2 -8.2999999999999996e-01 6.9699900938699333e+00 1.0947230904778424e+01 1.0881654466704894e+01 3 -3 0
2063 444 1 4.1499999999999998e-01 1.6749979756779869e+00 4.5180651688927203e+00 1.3596137239250496e+01 -1 -2 0
167 444 1 4.1499999999999998e-01 5.9122053182194643e+00 1.0209966031116796e+01 1.2855178913240293e+01 -1 1 0
302 444 1 4.1499999999999998e-01 5.4158941610716775e+00 1.0086250235839577e+01 1.5279859183521907e+01 3 5 0
2064 444 1 4.1499999999999998e-01 1.7483428604823172e+00 3.0298679787344769e+00 1.3864063982674093e+01 -1 -2 0
4782 444 1 4.1499999999999998e-01 3.0846591718180387e+00 1.1077567904703313e+01 1.2158923644188517e+01 6 -2 0
4780 444 2 -8.2999999999999996e-01 2.3521864538524295e+00 1.1281676309602391e+01 1.1577498460470091e+01 6 -2 0
3271 444 2 -8.2999999999999996e-01 3.6450488357325583e+00 7.4448976419774375e+00 1.6244519149669944e+01 2 0 0
5803 444 2 -8.2999999999999996e-01 8.5396933060447877e-01 7.0630305848304493e+00 1.6214440996238029e+01 -4 7 0
4966 444 2 -8.2999999999999996e-01 3.0207943054515369e+00 4.9535851250321494e-01 1.0229937228776768e+01 -2 -1 0
168 444 1 4.1499999999999998e-01 6.5883795793624351e+00 9.0396947099281562e+00 1.3537196928187980e+01 -1 1 0
4781 444 1 4.1499999999999998e-01 1.7082630092132822e+00 1.1707791325305877e+01 1.2143201954697815e+01 6 -2 0
2488 444 2 -8.2999999999999996e-01 3.8376923910299338e-01 3.1131161691619500e+00 1.5167238297516661e+01 1 4 0
6006 444 3 -1.0000000000000000e+00 7.0790684189871733e+00 6.0868483261863098e+00 9.3998055422240920e+00 0 0 0
1137 444 1 4.1499999999999998e-01 7.4057414418193277e+00 6.0550292631284020e+00 1.1038331067974690e+01 -1 -2 0
2006 444 1 4.1499999999999998e-01 7.6070927303367926e+00 4.6385442353560000e+00 9.6729203205679859e+00 1 8 0
1135 444 2 -8.2999999999999996e-01 7.5199602117049000e+00 6.1962389258692037e+00 1.1978142670844621e+01 -1 -2 0
5298 444 1 4.1499999999999998e-01 6.1880171810274716e+00 8.2568420323124980e-01 1.4704501896243540e+01 -1 6 0
4803 444 1 4.1499999999999998e-01 7.3019526449803571e+00 6.9280436510232857e+00 1.6156267274127096e+01 -3 -2 0
1542 444 1 4.1499999999999998e-01 2.6035672844688662e-01 1.0298443357292999e+01 1.4841418408090165e+01 -2 -3 0
2947 444 2 -8.2999999999999996e-01 3.3577883211131607e+00 9.5958899609114495e-02 1.2824174883794724e+01 4 2 0
5804 444 1 4.1499999999999998e-01 8.0066444748475840e-01 7.2149767724259020e+00 1.5270881795158544e+01 -4 7 0
3634 444 2 -8.2999999999999996e-01 5.2103320871152237e-01 7.1139989197520590e+00 1.3522277344326479e+01 3 6 0
1593 444 1 4.1499999999999998e-01 9.0053124502161264e-01 8.7744074456469026e+00 1.0297986849984504e+01 -6 0 0
301 444 2 -8.2999999999999996e-01 5.5525404145954145e+00 1.0130555897823365e+01 1.6226219238658459e+01 3 5 0
3636 444 1 4.1499999999999998e-01 1.4849309278754791e-01 7.9875001655479627e+00 1.3642453211679785e+01 3 6 0
1591 444 2 -8.2999999999999996e-01 1.0598770095966634e+00 9.6210090757967190e+00 9.8807254504620357e+00 -6 0 0
2949 444 1 4.1499999999999998e-01 3.0022585706486158e+00 5.6159089827845310e-01 1.3581153957353644e+01 4 2 0
4968 444 1 4.1499999999999998e-01 3.2256664914692181e+00 4.4707383851455823e-01 1.1163707987574917e+01 -2 -1 0
3635 444 1 4.1499999999999998e-01 9.3487697375916579e-01 7.1461813958855807e+00 1.2659763753145118e+01 3 6 0
36 444 1 4.1499999999999998e-01 1.2575696667525285e+01 7.9284913535823842e-01 9.8436239381491024e+00 3 2 0
1058 444 1 4.1499999999999998e-01 9.9008099080417562e+00 7.9804952215659097e-01 1.4717936474444434e+01 -2 2 0
3143 444 1 4.1499999999999998e-01 7.6156797169220996e+00 3.5408867883698916e+00 1.5485628530592081e+01 -3 4 0
3142 444 2 -8.2999999999999996e-01 8.4851586618609467e+00 3.4662183498983512e+00 1.5878900493475674e+01 -3 4 0
3144 444 1 4.1499999999999998e-01 8.7588585402965151e+00 2.5691592058930239e+00 1.5687576009891965e+01 -3 4 0
2005 444 2 -8.2999999999999996e-01 8.0166907957862623e+00 3.8371874305874027e+00 9.9989395214901364e+00 1 8 0
63 444 1 4.1499999999999998e-01 7.9217521337011947e+00 8.2064452004052164e+00 1.0093691428629084e+01 2 1 0
865 444 2 -8.2999999999999996e-01 1.2129153055971688e+01 4.7726428782194148e+00 1.3835680854240232e+01 1 2 0
2707 444 2 -8.2999999999999996e-01 1.3546609772087910e+01 7.3367857454075462e+00 1.4525936049853515e+01 4 -3 0
4430 444 1 4.1499999999999998e-01 1.4004156476613344e+01 4.3900511546059073e+00 1.0314736857347544e+01 -4 -4 0
2648 444 1 4.1499999999999998e-01 9.6118406259532563e+00 1.0223624486596037e+01 9.9078168411276462e+00 0 6 0
1691 444 1 4.1499999999999998e-01 8.8495658247007096e+00 5.0497282456531156e+00 1.3331606572644677e+01 0 1 0
5004 444 1 4.1499999999999998e-01 9.1928600904449471e+00 5.8491199328273611e+00 9.7134699440531538e+00 1 4 0
1690 444 2 -8.2999999999999996e-01 9.5482494664181328e+00 5.2570559622895550e+00 1.3952161849756589e+01 0 1 0
1692 444 1 4.1499999999999998e-01 9.4387671089031713e+00 4.6202465950230307e+00 1.4658363010260803e+01 0 1 0
5002 444 2 -8.2999999999999996e-01 9.8735325257914113e+00 6.0137420120505469e+00 1.0366016069726392e+01 1 4 0
5003 444 1 4.1499999999999998e-01 9.5200098663228001e+00 5.6511426533373568e+00 1.1178281574910113e+01 1 4 0
1190 444 1 4.1499999999999998e-01 1.1397696971958608e+01 1.7907099629051000e+00 1.2841100140212969e+01 1 0 0
1191 444 1 4.1499999999999998e-01 1.1198914122220250e+01 2.6391991562628858e+00 1.1603179852575892e+01 1 0 0
1189 444 2 -8.2999999999999996e-01 1.1694392857300645e+01 2.5980683789839030e+00 1.2421129078302798e+01 1 0 0
2156 444 1 4.1499999999999998e-01 9.5976652778656764e+00 1.3802974585150034e+00 1.0683866687708383e+01 0 -4 0
2157 444 1 4.1499999999999998e-01 9.3143865503841905e+00 2.8174757568122750e+00 1.0301548934527888e+01 0 -4 0
2155 444 2 -8.2999999999999996e-01 1.0028411895223782e+01 2.2199839922291411e+00 1.0523817409486863e+01 0 -4 0
153 444 1 4.1499999999999998e-01 1.2734162768911066e+01 6.8472287387501254e+00 1.0956618128483127e+01 0 0 0
62 444 1 4.1499999999999998e-01 9.3596268569505963e+00 7.7355271774185255e+00 1.0042236171611888e+01 2 1 0
61 444 2 -8.2999999999999996e-01 8.7987579372032911e+00 8.4801658498845374e+00 9.8250454139780654e+00 2 1 0
152 444 1 4.1499999999999998e-01 1.1518959833903113e+01 6.8332734519227500e+00 1.0053854452484588e+01 0 0 0
151 444 2 -8.2999999999999996e-01 1.2209405225175979e+01 7.4076363771492524e+00 1.0384949909717076e+01 0 0 0
936 444 1 4.1499999999999998e-01 8.2077544231027009e+00 7.8040454982691276e+00 1.4529005767073258e+01 5 0 0
934 444 2 -8.2999999999999996e-01 8.0526848433810230e+00 8.2624041675223516e+00 1.3703116791318852e+01 5 0 0
935 444 1 4.1499999999999998e-01 7.8564434651769126e+00 7.5666616291503628e+00 1.3075690698132071e+01 5 0 0
4961 444 1 4.1499999999999998e-01 1.3485679420801096e+01 4.2499117115034606e+00 1.5620906379783204e+01 1 1 0
4104 444 1 4.1499999999999998e-01 1.1687513460485299e+01 8.8098505012076398e+00 1.1431944188539319e+01 -4 1 0
511 444 2 -8.2999999999999996e-01 8.3758087009967266e+00 1.1046846250042323e-01 1.0480030690351395e+01 1 2 0
4103 444 1 4.1499999999999998e-01 1.1097667059506087e+01 8.8561557094270551e+00 1.2825440677485778e+01 -4 1 0
4102 444 2 -8.2999999999999996e-01 1.1678144195788139e+01 9.3338563546834976e+00 1.2232920324773863e+01 -4 1 0
2708 444 1 4.1499999999999998e-01 1.2597403880235067e+01 7.2556712392077252e+00 1.4619002652436636e+01 4 -3 0
4431 444 1 4.1499999999999998e-01 1.3661624929354902e+01 3.0150329843422297e+00 9.7819213789781685e+00 -4 -4 0
4429 444 2 -8.2999999999999996e-01 1.4376483860554574e+01 3.6492597593598393e+00 9.8363727107157448e+00 -4 -4 0
867 444 1 4.1499999999999998e-01 1.1208071243917940e+01 5.0319054272643031e+00 1.3860642617494342e+01 1 2 0
866 444 1 4.1499999999999998e-01 1.2149221011810438e+01 4.0140769876357965e+00 1.3252236866614636e+01 1 2 0
2709 444 1 4.1499999999999998e-01 1.3702224828710319e+01 8.2793687876273871e+00 1.4466328249575167e+01 4 -3 0
1057 444 2 -8.2999999999999996e-01 9.1695748653108655e+00 7.8698224869210187e-01 1.5335516543049227e+01 -2 2 0
2337 444 1 4.1499999999999998e-01 1.4553888698298671e+01 1.8048445647412379e+00 1.3485522084828483e+01 0 -1 0
34 444 2 -8.2999999999999996e-01 1.2598082484209542e+01 1.7486913974495644e+00 9.7978304535826428e+00 3 2 0
2335 444 2 -8.2999999999999996e-01 1.5222228156469127e+01 1.1367355273164694e+00 1.3637786931038004e+01 0 -1 0
2647 444 2 -8.2999999999999996e-01 9.5814639810706144e+00 1.1123660354657421e+01 1.0232232845585360e+01 0 6 0
35 444 1 4.1499999999999998e-01 1.1782554233548273e+01 2.0280511619551600e+00 1.0213888931676923e+01 3 2 0
401 444 1 4.1499999999999998e-01 1.0526548779066289e+01 6.5551991163610284e+00 1.5309924083287617e+01 -7 3 0
3886 444 2 -8.2999999999999996e-01 1.3131103312296585e+01 1.1287827617037244e+01 9.9826798770661238e+00 -2 3 0
400 444 2 -8.2999999999999996e-01 1.1020510141927833e+01 7.3717611529465170e+00 1.5383820375435141e+01 -7 3 0
1920 444 1 4.1499999999999998e-01 1.3722107031016774e+01 8.3382067895746630e+00 1.0240679945528477e+01 -1 3 0
5763 444 1 4.1499999999999998e-01 1.4683472945123299e+01 5.7985284366558174e+00 1.1986744267961429e+01 3 1 0
1918 444 2 -8.2999999999999996e-01 1.4372412181602540e+01 9.0405816381075965e+00 1.0242807525209985e+01 -1 3 0
4946 444 1 4.1499999999999998e-01 1.3346015645741090e+01 1.0518703451567879e+01 1.2708705499484774e+01 0 -1 0
1919 444 1 4.1499999999999998e-01 1.3855512859237972e+01 9.8462160744218252e+00 1.0243116666658402e+01 -1 3 0
5762 444 1 4.1499999999999998e-01 1.3270850377370113e+01 5.2698553213852746e+00 1.2116734081496087e+01 3 1 0
5761 444 2 -8.2999999999999996e-01 1.3892454526330251e+01 5.6195412698749339e+00 1.1478329490143180e+01 3 1 0
4945 444 2 -8.2999999999999996e-01 1.3847375636803946e+01 1.0991885314791062e+01 1.3372760768190947e+01 0 -1 0
2331 444 1 4.1499999999999998e-01 8.3806500073805079e+00 1.1269678612312145e+01 1.3083175028107117e+01 1 1 0
2329 444 2 -8.2999999999999996e-01 9.3144219825774854e+00 1.1059308862973886e+01 1.3090021503696439e+01 1 1 0
223 444 2 -8.2999999999999996e-01 1.3262875532238906e+01 1.0797640249513808e+01 1.6071113469081794e+01 4 3 0
4962 444 1 4.1499999999999998e-01 1.3402412551468212e+01 5.6962203327513858e+00 1.6060398346616374e+01 1 1 0
402 444 1 4.1499999999999998e-01 1.0422824487743876e+01 7.9746180968844174e+00 1.5826050270517397e+01 -7 3 0
224 444 1 4.1499999999999998e-01 1.3273412465154323e+01 1.0655636376417624e+01 1.5124563639189365e+01 4 3 0
3447 444 1 4.1499999999999998e-01 7.8556874814357034e+00 1.0725201222043349e+01 1.0594468753133832e+01 3 -3 0
2649 444 1 4.1499999999999998e-01 9.9828089350532032e+00 1.1079609170208439e+01 1.1100112139583716e+01 0 6 0
2330 444 1 4.1499999999999998e-01 9.3529690283029190e+00 1.0147883679497459e+01 1.3379935971853802e+01 1 1 0
512 444 1 4.1499999999999998e-01 7.6503969229465376e+00 2.1822323786114170e-01 9.8648897222894139e+00 1 2 0
4395 444 1 4.1499999999999998e-01 9.2466472861861515e+00 1.1516105857920342e+01 1.6171900032908905e+01 -1 0 0
1059 444 1 4.1499999999999998e-01 8.6616771538822750e+00 1.2974415982561993e-02 1.5092238845058933e+01 -2 2 0
4396 444 2 -8.2999999999999996e-01 4.1841717342944200e+00 8.8994442827884990e-01 1.7149459823354789e+01 1 3 0
3091 444 2 -8.2999999999999996e-01 6.0179552382958574e+00 5.9751548090958284e+00 1.6552438798601507e+01 -1 -1 0
3093 444 1 4.1499999999999998e-01 5.0980829924039277e+00 6.2201122755813039e+00 1.6452125673778756e+01 -1 -1 0
4398 444 1 4.1499999999999998e-01 3.7627347421536168e+00 1.5123048621625232e+00 1.7742157085734338e+01 1 3 0
4160 444 1 4.1499999999999998e-01 9.2524767489329585e-01 1.0132922297181237e+01 1.9747106408424731e+01 5 -1 0
3273 444 1 4.1499999999999998e-01 2.8056598877117729e+00 7.2534195971228010e+00 1.6662843233355780e+01 2 0 0
2590 444 2 -8.2999999999999996e-01 2.1171700287846371e+00 1.0333619330861257e-01 2.3969245322449986e+01 -1 0 0
3272 444 1 4.1499999999999998e-01 3.8954246205145395e+00 8.3017514255121494e+00 1.6589984413104816e+01 2 0 0
303 444 1 4.1499999999999998e-01 4.6893643091007755e+00 1.0338538467250700e+01 1.6583853494498634e+01 3 5 0
2591 444 1 4.1499999999999998e-01 1.2353036660917895e+00 3.9324183760862508e-01 2.3735795616086286e+01 -1 0 0
2793 444 1 4.1499999999999998e-01 1.2979731227785700e+00 2.6466424679061924e+00 2.3237115290841011e+01 1 0 0
3570 444 1 4.1499999999999998e-01 3.0484770371112441e-01 4.8858732379192993e-01 1.7923730621183399e+01 -1 0 0
2592 444 1 4.1499999999999998e-01 2.6796232947562597e+00 8.4665686186482580e-01 2.3751636514252382e+01 -1 0 0
1002 444 1 4.1499999999999998e-01 3.7868474248314937e-01 1.0628647744351786e+01 2.2023379728977520e+01 -1 -1 0
2658 444 1 4.1499999999999998e-01 7.1218315266834802e+00 2.4826057743965335e-01 1.7899576116336679e+01 -2 0 0
2656 444 2 -8.2999999999999996e-01 6.6224401759251803e+00 4.2950263187356635e-01 1.8695811967412610e+01 -2 0 0
2000 444 1 4.1499999999999998e-01 2.6064782539664977e-01 7.6019652639217048e+00 2.3968897221762788e+01 -2 -1 0
2994 444 1 4.1499999999999998e-01 6.0869231930644139e+00 5.2529519486797449e+00 1.8323325361849278e+01 -3 1 0
2992 444 2 -8.2999999999999996e-01 6.3784478570962735e+00 5.2940332382041566e+00 1.9234125869074251e+01 -3 1 0
4397 444 1 4.1499999999999998e-01 5.0357252508523205e+00 7.1568431410880395e-01 1.7550361036477234e+01 1 3 0
3569 444 1 4.1499999999999998e-01 1.0793066803529394e+00 2.8107356881346454e-02 1.9140310584791898e+01 -1 0 0
1999 444 2 -8.2999999999999996e-01 7.9320075493477449e-01 7.5151082739201751e+00 2.3178280328140151e+01 -2 -1 0
4743 444 1 4.1499999999999998e-01 2.4054702362173694e+00 9.8361994375552602e+00 1.7669186846923470e+01 3 0 0
2505 444 1 4.1499999999999998e-01 5.1465721802015940e+00 7.7668566625111335e-01 2.2442194384716750e+01 1 -3 0
2792 444 1 4.1499999999999998e-01 1.0135324955727814e+00 2.7039064016717584e+00 2.1751279070662203e+01 1 0 0
2922 444 1 4.1499999999999998e-01 1.9289300572347441e+00 5.2516060671365308e+00 1.7080699875601162e+01 5 -1 0
3568 444 2 -8.2999999999999996e-01 5.4337359476703806e-01 7.5050169256664578e-01 1.8812965650233267e+01 -1 0 0
2791 444 2 -8.2999999999999996e-01 1.6493409125582685e+00 2.3779469043865475e+00 2.2388248301257129e+01 1 0 0