LAMMPS data file via write_data, version 11 Aug 2017, timestep = 500000

7158 atoms
4 atom types
4000 bonds
1 bond types
2000 angles
1 angle types

0.0000000000000000e+00 4.5679949999999998e+01 xlo xhi
0.0000000000000000e+00 4.6885919999999999e+01 ylo yhi
0.0000000000000000e+00 6.5000000000000000e+01 zlo zhi

Masses

1 1.0079
2 15.9994
3 18.9984
4 107.868

Bond Coeffs # harmonic

1 450 0.9572

Angle Coeffs # harmonic

1 55 104.52

Atoms # full

6007 444 4 0.0000000000000000e+00 1.6907200000000000e+00 0.0000000000000000e+00 0.0000000000000000e+00 0 0 0
6008 444 4 0.0000000000000000e+00 4.2285000000000004e+00 1.4651900000000000e+00 0.0000000000000000e+00 0 0 0
6009 444 4 2.0830000000000001e-02 1.6907700000000001e+00 0.0000000000000000e+00 7.1781499999999996e+00 0 0 0
6010 444 4 2.0830000000000001e-02 4.2285500000000003e+00 1.4651900000000000e+00 7.1781499999999996e+00 0 0 0
6011 444 4 0.0000000000000000e+00 2.5366499999999998e+00 1.4651900000000000e+00 2.3926400000000001e+00 0 0 0
6012 444 4 0.0000000000000000e+00 5.0744199999999999e+00 0.0000000000000000e+00 2.3926400000000001e+00 0 0 0
6013 444 4 0.0000000000000000e+00 8.4509000000000001e-01 1.4651900000000000e+00 4.7824200000000001e+00 0 0 0
6014 444 4 0.0000000000000000e+00 3.3828600000000000e+00 0.0000000000000000e+00 4.7824499999999999e+00 0 0 0
6015 444 4 0.0000000000000000e+00 1.6907200000000000e+00 2.9303699999999999e+00 0.0000000000000000e+00 0 0 0
6016 444 4 0.0000000000000000e+00 4.2285000000000004e+00 4.3955599999999997e+00 0.0000000000000000e+00 0 0 0
6017 444 4 2.0830000000000001e-02 1.6907700000000001e+00 2.9303699999999999e+00 7.1781899999999998e+00 0 0 0
6018 444 4 2.0830000000000001e-02 4.2285500000000003e+00 4.3955599999999997e+00 7.1781600000000001e+00 0 0 0
6019 444 4 0.0000000000000000e+00 2.5366499999999998e+00 4.3955599999999997e+00 2.3926400000000001e+00 0 0 0
6020 444 4 0.0000000000000000e+00 5.0744199999999999e+00 2.9303699999999999e+00 2.3926400000000001e+00 0 0 0
6021 444 4 0.0000000000000000e+00 8.4509000000000001e-01 4.3955599999999997e+00 4.7824499999999999e+00 0 0 0
6022 444 4 0.0000000000000000e+00 3.3828700000000000e+00 2.9303699999999999e+00 4.7824400000000002e+00 0 0 0
6023 444 4 0.0000000000000000e+00 1.6907200000000000e+00 5.8607399999999998e+00 0.0000000000000000e+00 0 0 0
6024 444 4 0.0000000000000000e+00 4.2285000000000004e+00 7.3259299999999996e+00 0.0000000000000000e+00 0 0 0
6025 444 4 2.0830000000000001e-02 1.6907700000000001e+00 5.8607399999999998e+00 7.1781499999999996e+00 0 0 0
6026 444 4 2.0830000000000001e-02 4.2285500000000003e+00 7.3259299999999996e+00 7.1781499999999996e+00 0 0 0
6027 444 4 0.0000000000000000e+00 2.5366499999999998e+00 7.3259299999999996e+00 2.3926400000000001e+00 0 0 0
6028 444 4 0.0000000000000000e+00 5.0744199999999999e+00 5.8607399999999998e+00 2.3926400000000001e+00 0 0 0
6029 444 4 0.0000000000000000e+00 8.4509000000000001e-01 7.3259299999999996e+00 4.7824200000000001e+00 0 0 0
6030 444 4 0.0000000000000000e+00 3.3828600000000000e+00 5.8607399999999998e+00 4.7824499999999999e+00 0 0 0
6135 444 4 0.0000000000000000e+00 6.7662699999999996e+00 0.0000000000000000e+00 0.0000000000000000e+00 0 0 0
6137 444 4 2.0830000000000001e-02 6.7663200000000003e+00 0.0000000000000000e+00 7.1781499999999996e+00 0 0 0
6139 444 4 0.0000000000000000e+00 7.6121999999999996e+00 1.4651900000000000e+00 2.3926400000000001e+00 0 0 0
6141 444 4 0.0000000000000000e+00 5.9206399999999997e+00 1.4651900000000000e+00 4.7824200000000001e+00 0 0 0
6143 444 4 0.0000000000000000e+00 6.7662699999999996e+00 2.9303699999999999e+00 0.0000000000000000e+00 0 0 0
6145 444 4 2.0830000000000001e-02 6.7663200000000003e+00 2.9303699999999999e+00 7.1781899999999998e+00 0 0 0
6147 444 4 0.0000000000000000e+00 7.6121999999999996e+00 4.3955599999999997e+00 2.3926400000000001e+00 0 0 0
6149 444 4 0.0000000000000000e+00 5.9206399999999997e+00 4.3955599999999997e+00 4.7824499999999999e+00 0 0 0
6151 444 4 0.0000000000000000e+00 6.7662699999999996e+00 5.8607399999999998e+00 0.0000000000000000e+00 0 0 0
6153 444 4 2.0830000000000001e-02 6.7663200000000003e+00 5.8607399999999998e+00 7.1781499999999996e+00 0 0 0
6155 444 4 0.0000000000000000e+00 7.6121999999999996e+00 7.3259299999999996e+00 2.3926400000000001e+00 0 0 0
6157 444 4 0.0000000000000000e+00 5.9206399999999997e+00 7.3259299999999996e+00 4.7824200000000001e+00 0 0 0
6136 444 4 0.0000000000000000e+00 9.3040500000000002e+00 1.4651900000000000e+00 0.0000000000000000e+00 0 0 0
6138 444 4 2.0830000000000001e-02 9.3041000000000000e+00 1.4651900000000000e+00 7.1781499999999996e+00 0 0 0
6140 444 4 0.0000000000000000e+00 1.0149970000000000e+01 0.0000000000000000e+00 2.3926400000000001e+00 0 0 0
6142 444 4 0.0000000000000000e+00 8.4584100000000007e+00 0.0000000000000000e+00 4.7824499999999999e+00 0 0 0
6144 444 4 0.0000000000000000e+00 9.3040500000000002e+00 4.3955599999999997e+00 0.0000000000000000e+00 0 0 0
6146 444 4 2.0830000000000001e-02 9.3041000000000000e+00 4.3955599999999997e+00 7.1781600000000001e+00 0 0 0
6148 444 4 0.0000000000000000e+00 1.0149970000000000e+01 2.9303699999999999e+00 2.3926400000000001e+00 0 0 0
6150 444 4 0.0000000000000000e+00 8.4584200000000003e+00 2.9303699999999999e+00 4.7824400000000002e+00 0 0 0
6152 444 4 0.0000000000000000e+00 9.3040500000000002e+00 7.3259299999999996e+00 0.0000000000000000e+00 0 0 0
6154 444 4 2.0830000000000001e-02 9.3041000000000000e+00 7.3259299999999996e+00 7.1781499999999996e+00 0 0 0
6156 444 4 0.0000000000000000e+00 1.0149970000000000e+01 5.8607399999999998e+00 2.3926400000000001e+00 0 0 0
6158 444 4 0.0000000000000000e+00 8.4584100000000007e+00 5.8607399999999998e+00 4.7824499999999999e+00 0 0 0
6269 444 4 0.0000000000000000e+00 1.0996190000000000e+01 1.4651900000000000e+00 4.7824200000000001e+00 0 0 0
6277 444 4 0.0000000000000000e+00 1.0996190000000000e+01 4.3955599999999997e+00 4.7824499999999999e+00 0 0 0
6285 444 4 0.0000000000000000e+00 1.0996190000000000e+01 7.3259299999999996e+00 4.7824200000000001e+00 0 0 0
1903 444 2 -8.2999999999999996e-01 1.0769317637405138e+01 2.8530546048485550e+00 9.7309179848685989e+00 2 -1 0
1905 444 1 4.1499999999999998e-01 1.1172174307206182e+01 2.0363348298525135e+00 9.4361167811035020e+00 2 -1 0
1904 444 1 4.1499999999999998e-01 1.0331488543201248e+01 2.6225864102891645e+00 1.0550321504083646e+01 2 -1 0
5859 444 1 4.1499999999999998e-01 3.9794360612526836e+00 2.5368837127729837e+00 1.6105763294875409e+01 4 3 0
2644 444 2 -8.2999999999999996e-01 7.6482755122147772e+00 5.0281634730225013e+00 1.0025836961444227e+01 -2 2 0
2646 444 1 4.1499999999999998e-01 8.5806594276991088e+00 5.2370642945190555e+00 9.9688003333014183e+00 -2 2 0
5857 444 2 -8.2999999999999996e-01 3.9303685482654980e+00 2.6195652963735880e+00 1.5153404116801218e+01 4 3 0
4619 444 1 4.1499999999999998e-01 1.0674308438981194e+01 5.5627031213496130e+00 1.1426869660706044e+01 -3 1 0
5858 444 1 4.1499999999999998e-01 3.1193785644363676e+00 2.1704699706808426e+00 1.4914991581466884e+01 4 3 0
737 444 1 4.1499999999999998e-01 1.5376857543497535e+00 6.0187414830713788e+00 9.6618074026242287e+00 4 0 0
4620 444 1 4.1499999999999998e-01 1.0628224022961698e+01 4.7383275240050517e+00 1.0157942148687910e+01 -3 1 0
339 444 1 4.1499999999999998e-01 2.0091405821936279e+00 2.4669237122043147e-01 1.5761399542286325e+01 0 0 0
4593 444 1 4.1499999999999998e-01 6.8714506572375047e+00 3.4584131197259484e+00 1.0291999904379685e+01 0 -2 0
4591 444 2 -8.2999999999999996e-01 6.5497397919905520e+00 2.5723894186182350e+00 1.0458421062880674e+01 0 -2 0
4592 444 1 4.1499999999999998e-01 5.7822520608220520e+00 2.6966680727737509e+00 1.1016766171936609e+01 0 -2 0
149 444 1 4.1499999999999998e-01 3.5184135505137477e+00 4.5410146633555906e+00 1.0603260604407977e+01 0 -1 0
148 444 2 -8.2999999999999996e-01 4.3168090074367136e+00 4.2673493858422482e+00 1.1054817988042261e+01 0 -1 0
146 444 1 4.1499999999999998e-01 2.0593913461556661e+00 1.1711475210283675e+00 1.0354622998687475e+01 1 1 0
145 444 2 -8.2999999999999996e-01 1.1539314694353029e+00 8.6857910662986082e-01 1.0424097412762691e+01 1 1 0
150 444 1 4.1499999999999998e-01 4.2621852953282957e+00 4.6860335198810175e+00 1.1913859247575513e+01 0 -1 0
2240 444 1 4.1499999999999998e-01 8.2256533083664323e+00 2.5495754316123747e+00 1.1717152031192764e+01 4 1 0
2239 444 2 -8.2999999999999996e-01 9.1409367856386883e+00 2.6890891881348766e+00 1.1960101315810792e+01 4 1 0
5756 444 1 4.1499999999999998e-01 6.4064654374798637e+00 3.2997908005474170e+00 1.3197367012476864e+01 2 0 0
2645 444 1 4.1499999999999998e-01 7.3857543180340137e+00 5.3369917589936824e+00 1.0892981959288214e+01 -2 2 0
2241 444 1 4.1499999999999998e-01 9.1342835683225871e+00 3.5034961325244609e+00 1.2463021893669362e+01 4 1 0
4442 444 1 4.1499999999999998e-01 1.3191951074190613e+00 2.4174241152208102e+00 1.5766221797793490e+01 -1 1 0
771 444 1 4.1499999999999998e-01 9.0346164943029841e+00 7.2087506128971031e+00 1.0006586994230348e+01 5 4 0
5755 444 2 -8.2999999999999996e-01 6.4607514819698961e+00 4.2455911278303802e+00 1.3334287990593658e+01 2 0 0
736 444 2 -8.2999999999999996e-01 2.1049591307119693e+00 5.2957258255334096e+00 9.9295426451354292e+00 4 0 0
3870 444 1 4.1499999999999998e-01 4.9751941236624680e-01 6.3607599200692118e+00 1.2671720119603243e+01 -3 0 0
3410 444 1 4.1499999999999998e-01 4.5688298054210419e+00 6.1567592663835127e+00 1.0050890882081305e+01 1 -2 0
5757 444 1 4.1499999999999998e-01 6.5308977754008852e+00 4.3470275807367162e+00 1.4283510239689392e+01 2 0 0
3409 444 2 -8.2999999999999996e-01 4.7507467444318605e+00 6.9864591665217857e+00 1.0492180141373803e+01 1 -2 0
1325 444 1 4.1499999999999998e-01 1.0391671184561915e+01 5.1380159754259491e+00 1.3793462855080772e+01 0 1 0
1326 444 1 4.1499999999999998e-01 9.8150728379532008e+00 6.5111430296339883e+00 1.3521521042473662e+01 0 1 0
738 444 1 4.1499999999999998e-01 1.5348501946137338e+00 4.5268939932707086e+00 9.9192542040103096e+00 4 0 0
4476 444 1 4.1499999999999998e-01 6.5051193720011726e+00 7.1923093163079619e+00 1.2695076847486593e+01 2 5 0
5074 444 2 -8.2999999999999996e-01 1.7043481213114642e+00 5.7132670477584071e+00 1.6239232772793084e+01 -1 2 0
5076 444 1 4.1499999999999998e-01 2.5358865501905621e+00 5.7087901049788377e+00 1.5765148596934999e+01 -1 2 0
4475 444 1 4.1499999999999998e-01 6.7326614127318791e+00 5.6960030287895247e+00 1.2660617739832116e+01 2 5 0
337 444 2 -8.2999999999999996e-01 1.9569046702786943e+00 9.5868054345305764e-01 1.5123766186672773e+01 0 0 0
3411 444 1 4.1499999999999998e-01 5.4622387036539024e+00 6.7841976938579212e+00 1.1099717313669942e+01 1 -2 0
3869 444 1 4.1499999999999998e-01 9.0266364377364694e-01 6.0207333837083628e+00 1.4090217955222061e+01 -3 0 0
4441 444 2 -8.2999999999999996e-01 6.3948606412065023e-01 2.9972886100303953e+00 1.6109710788234626e+01 -1 1 0
4474 444 2 -8.2999999999999996e-01 6.8147831850542016e+00 6.4866237110873755e+00 1.2127319635227568e+01 2 5 0
1212 444 1 4.1499999999999998e-01 1.0816442475536162e+01 1.4798368206751165e+00 1.2218276437377140e+01 -2 0 0
3868 444 2 -8.2999999999999996e-01 1.1986659764218932e+00 6.4902405661911331e+00 1.3310360417965734e+01 -3 0 0
1242 444 1 4.1499999999999998e-01 9.9339820833991954e+00 2.6234678360705632e+00 1.4370572964975398e+01 -5 -4 0
4618 444 2 -8.2999999999999996e-01 1.0274366918788436e+01 5.5327948179369466e+00 1.0557740837089451e+01 -3 1 0
338 444 1 4.1499999999999998e-01 1.6297123417751134e+00 5.4292276217883495e-01 1.4326067865340187e+01 0 0 0
651 444 1 4.1499999999999998e-01 1.0677764487665465e+01 7.4559937592106511e+00 1.5732408625069176e+01 1 3 0
2574 444 1 4.1499999999999998e-01 6.1126955423792682e+00 7.6101936792436993e+00 1.4863868443569244e+01 -1 -3 0
849 444 1 4.1499999999999998e-01 8.7389190019353524e+00 4.2258450282601032e+00 1.5333758562870418e+01 -1 2 0
847 444 2 -8.2999999999999996e-01 7.9154707633808714e+00 4.4767569605322581e+00 1.5752337207005633e+01 -1 2 0
2046 444 1 4.1499999999999998e-01 5.7620254157237119e+00 7.6051569611664971e-01 1.3065319688467207e+01 1 3 0
1240 444 2 -8.2999999999999996e-01 1.0472579348509358e+01 3.4040308288169485e+00 1.4500446653480017e+01 -5 -4 0
3621 444 1 4.1499999999999998e-01 7.4197301547412886e+00 6.1185994940922095e+00 1.6033789532916561e+01 0 2 0
1241 444 1 4.1499999999999998e-01 1.1373619319957459e+01 3.0863864128044489e+00 1.4441610633594504e+01 -5 -4 0
2045 444 1 4.1499999999999998e-01 5.6025924976863228e+00 1.4673604198114065e+00 1.4394547652390809e+01 1 3 0
235 444 2 -8.2999999999999996e-01 3.6289953618220183e+00 1.4751020025179864e+00 1.0499310787598450e+01 -2 -1 0
3619 444 2 -8.2999999999999996e-01 6.7683745459747824e+00 6.8135503877883936e+00 1.6128715825018798e+01 0 2 0
5927 444 1 4.1499999999999998e-01 4.4010876301133663e+00 4.6699069324016653e+00 1.5576074457047497e+01 1 4 0
5791 444 2 -8.2999999999999996e-01 4.8373674350164125e-01 7.5699582616757679e+00 9.8468992672658153e+00 -1 -3 0
5926 444 2 -8.2999999999999996e-01 4.2063712669528899e+00 5.5666818240207512e+00 1.5303838639703871e+01 1 4 0
5928 444 1 4.1499999999999998e-01 5.0629950260099372e+00 5.9885233166896779e+00 1.5236921002817347e+01 1 4 0
233 444 1 4.1499999999999998e-01 9.9199748943535511e+00 8.1274187622613969e-01 1.6072462511580230e+01 -1 5 0
1324 444 2 -8.2999999999999996e-01 1.0477533483339739e+01 5.8934562735983338e+00 1.3211938493598954e+01 0 1 0
5548 444 2 -8.2999999999999996e-01 8.9876996802410023e+00 8.7248549252206098e-01 1.4720614706473430e+01 -2 4 0
2044 444 2 -8.2999999999999996e-01 6.2264178081165236e+00 1.3259506396002114e+00 1.3682454147660554e+01 1 3 0
3449 444 1 4.1499999999999998e-01 5.9660128941219837e-01 5.4556638035602367e-01 1.2199548601733545e+01 -1 -2 0
5550 444 1 4.1499999999999998e-01 9.4986263483726550e+00 2.2722901578761712e-01 1.4231912404884556e+01 -2 4 0
236 444 1 4.1499999999999998e-01 4.2664299021527441e+00 2.1430283447496086e+00 1.0246756722658906e+01 -2 -1 0
3448 444 2 -8.2999999999999996e-01 6.2481242380158608e-01 1.2259785628774436e-01 1.3057764039728930e+01 -1 -2 0
5549 444 1 4.1499999999999998e-01 8.1952381932915497e+00 9.9660796756703385e-01 1.4198282821343399e+01 -2 4 0
237 444 1 4.1499999999999998e-01 4.1177927714919411e+00 8.7941205327213390e-01 1.1067169188739632e+01 -2 -1 0
432 444 1 4.1499999999999998e-01 6.7976539391706883e+00 9.0537328588522836e-01 1.0363276159272411e+01 -4 -2 0
953 444 1 4.1499999999999998e-01 1.7426581407541483e-01 2.3820246832798904e+00 1.0256905030896505e+01 1 -2 0
431 444 1 4.1499999999999998e-01 7.9436617821313327e+00 7.3448254578892147e-02 9.8280537071164780e+00 -4 -2 0
2314 444 2 -8.2999999999999996e-01 5.0041324405086129e-02 7.4838091509589892e+00 1.6559775867625255e+01 3 0 0
1446 444 1 4.1499999999999998e-01 8.2903712641303173e-01 5.9832315159335114e-01 2.0090943362369192e+01 0 0 0
1251 444 1 4.1499999999999998e-01 2.4534109016737338e+00 1.9711722688488984e+00 1.7740749422270138e+01 2 -1 0
234 444 1 4.1499999999999998e-01 1.0259298622710178e+01 6.2263996732275084e-01 1.7535546881761345e+01 -1 5 0
5662 444 2 -8.2999999999999996e-01 4.8420793912331972e-01 4.4316953966873496e-01 2.1862597401141873e+01 2 -2 0
2370 444 1 4.1499999999999998e-01 5.6532905096695583e+00 1.6999126623245460e+00 2.3861657848007589e+01 -3 -1 0
2369 444 1 4.1499999999999998e-01 5.6054905068914600e+00 1.5241092198423938e+00 2.2358759468834769e+01 -3 -1 0
1445 444 1 4.1499999999999998e-01 1.4009534217428540e-01 1.3922732922401704e+00 1.9001494969146652e+01 0 0 0
2368 444 2 -8.2999999999999996e-01 5.5873887474514756e+00 1.0317493430138129e+00 2.3179421371036842e+01 -3 -1 0
1249 444 2 -8.2999999999999996e-01 3.3974341459648048e+00 2.0299833188532244e+00 1.7887696518504857e+01 2 -1 0
1250 444 1 4.1499999999999998e-01 3.5087893128330667e+00 2.8173943230612926e+00 1.8420440669257303e+01 2 -1 0
3779 444 1 4.1499999999999998e-01 5.2063684751475519e+00 2.5017088597753658e+00 2.0517246949906191e+01 2 0 0
2613 444 1 4.1499999999999998e-01 5.7406989488648472e+00 6.7636753494708000e+00 1.7544306101857494e+01 4 -1 0
3080 444 1 4.1499999999999998e-01 1.1187035002048942e+01 4.1858030058737503e+00 2.1437174657661288e+01 0 -1 0
5075 444 1 4.1499999999999998e-01 1.5265245230620526e+00 4.7903808293856693e+00 1.6420593669099759e+01 -1 2 0
5562 444 1 4.1499999999999998e-01 4.1410308158333180e+00 5.6247442811645616e+00 1.8706563104032202e+01 1 3 0
1321 444 2 -8.2999999999999996e-01 3.4918134003919188e+00 3.3165230262641114e+00 2.0430762688019552e+01 1 2 0
5333 444 1 4.1499999999999998e-01 6.8455446652166865e+00 6.1283421604602353e+00 2.0227323194377306e+01 2 -1 0
3780 444 1 4.1499999999999998e-01 5.6186177713785996e+00 1.1480479518578395e+00 1.9979150069146684e+01 2 0 0
5332 444 2 -8.2999999999999996e-01 6.6062953876946802e+00 5.6969588625369800e+00 2.1047628490503001e+01 2 -1 0
1323 444 1 4.1499999999999998e-01 3.0918322545278971e+00 3.5896329084138614e+00 2.1256388466874192e+01 1 2 0
1322 444 1 4.1499999999999998e-01 3.4103170418162931e+00 4.0807824149358343e+00 1.9860238437109476e+01 1 2 0
5294 444 1 4.1499999999999998e-01 6.0683129782257748e+00 6.0913366698897198e+00 2.2579746536183997e+01 -3 2 0
153 444 1 4.1499999999999998e-01 8.5543529329261681e+00 3.1684645915881897e+00 2.3138896572277456e+01 3 2 0
5295 444 1 4.1499999999999998e-01 5.3517144783327089e+00 6.8995040978018007e+00 2.3640523248586899e+01 -3 2 0
848 444 1 4.1499999999999998e-01 7.8182159545557406e+00 3.8611457189973279e+00 1.6478833063453909e+01 -1 2 0
3703 444 2 -8.2999999999999996e-01 7.9323322590909431e+00 2.8204455788734424e+00 1.7962802848547295e+01 3 1 0
3704 444 1 4.1499999999999998e-01 8.8365950213869109e+00 2.8046192170971964e+00 1.8276315657549294e+01 3 1 0
3705 444 1 4.1499999999999998e-01 7.5520901211695932e+00 2.0034595877272059e+00 1.8285574899575124e+01 3 1 0
5293 444 2 -8.2999999999999996e-01 5.8547514072042777e+00 6.0952186058975562e+00 2.3512810453843265e+01 -3 2 0
851 444 1 4.1499999999999998e-01 8.5405972278012499e+00 9.0325143303957722e-01 2.1712851446980928e+01 2 -1 0
811 444 2 -8.2999999999999996e-01 1.0051541232870481e+01 7.2247226485865257e+00 2.2474442451142639e+01 3 4 0
104 444 1 4.1499999999999998e-01 1.5189612142980859e+00 5.3496272412154662e+00 2.2985353550556876e+01 0 1 0
105 444 1 4.1499999999999998e-01 8.1349350826770961e-01 4.0108782421800608e+00 2.3029651488452661e+01 0 1 0
73 444 2 -8.2999999999999996e-01 9.8843499395457428e+00 5.0725449005515753e+00 2.0726873759342340e+01 0 -1 0
103 444 2 -8.2999999999999996e-01 1.6833472519625925e+00 4.4094001856272342e+00 2.3057346444275733e+01 0 1 0
5334 444 1 4.1499999999999998e-01 7.0306211009178670e+00 4.8402239969287404e+00 2.1000882308759628e+01 2 -1 0
4567 444 2 -8.2999999999999996e-01 1.9361344574864416e+00 7.1243766852135844e+00 2.3337547828031301e+01 4 5 0
151 444 2 -8.2999999999999996e-01 8.6970319670241700e+00 3.8025402200582286e+00 2.3841621738944976e+01 3 2 0
152 444 1 4.1499999999999998e-01 7.8294721402372849e+00 3.9375104293233103e+00 2.4222876081817713e+01 3 2 0
852 444 1 4.1499999999999998e-01 7.3898357462340449e+00 1.8790822179439062e+00 2.1588764184008156e+01 2 -1 0
850 444 2 -8.2999999999999996e-01 8.2975287324679368e+00 1.8128703866192706e+00 2.1885315099174608e+01 2 -1 0
5561 444 1 4.1499999999999998e-01 2.7549446701836455e+00 5.6738492277908747e+00 1.8099727703714201e+01 1 3 0
101 444 1 4.1499999999999998e-01 1.1262532554143240e+01 6.4061381551997210e+00 1.7845961038991998e+01 5 2 0
5560 444 2 -8.2999999999999996e-01 3.2960778722113502e+00 5.1750114843714483e+00 1.8711747054002583e+01 1 3 0
199 444 2 -8.2999999999999996e-01 8.4293369851708899e+00 7.2622150725876233e+00 1.9238020612714838e+01 -1 -4 0
813 444 1 4.1499999999999998e-01 1.0265325780969436e+01 6.8077104085180782e+00 2.3309085560297660e+01 3 4 0
75 444 1 4.1499999999999998e-01 9.9858284666410615e+00 5.2475433217519747e+00 1.9791293802061698e+01 0 -1 0
74 444 1 4.1499999999999998e-01 1.0047064981142414e+01 5.9166192487313118e+00 2.1147937848031223e+01 0 -1 0
1640 444 1 4.1499999999999998e-01 2.7896187673794275e+00 3.5310507584436261e+00 2.4107116016006923e+01 3 -1 0
3778 444 2 -8.2999999999999996e-01 5.8616726870688627e+00 1.8122293057718812e+00 2.0624146401140155e+01 2 0 0
4454 444 1 4.1499999999999998e-01 2.1145951352003306e-01 6.6972359922608549e+00 1.9633777745971472e+01 2 -3 0
4945 444 2 -8.2999999999999996e-01 9.8781191692114234e+00 2.3943010012210202e+00 1.9474731176585315e+01 -1 -1 0
232 444 2 -8.2999999999999996e-01 1.0602515624592117e+01 9.8823008703510140e-01 1.6720207789830276e+01 -1 5 0
4569 444 1 4.1499999999999998e-01 2.8698364703369017e+00 7.2746590216283051e+00 2.3485359852244759e+01 4 5 0
201 444 1 4.1499999999999998e-01 9.2951269552488611e+00 6.8563059573179643e+00 1.9194686704103585e+01 -1 -4 0
2611 444 2 -8.2999999999999996e-01 5.3513620520640446e+00 6.7468467728978698e+00 1.8418586064639950e+01 4 -1 0
1678 444 2 -8.2999999999999996e-01 5.2598436802207837e+00 1.9629409341856835e-01 1.8349388479666707e+01 1 0 0
4862 444 1 4.1499999999999998e-01 1.1023923714341169e+01 3.3037773800786412e+00 1.8140971314229972e+01 -1 1 0
100 444 2 -8.2999999999999996e-01 1.0974795613467675e+01 6.5599371365133905e+00 1.8745842181019459e+01 5 2 0
1680 444 1 4.1499999999999998e-01 4.5143032275476989e+00 7.8239673745001925e-01 1.8219446120240598e+01 1 0 0
2612 444 1 4.1499999999999998e-01 5.6034962974852593e+00 7.5833139646122696e+00 1.8809716426539968e+01 4 -1 0
5125 444 2 -8.2999999999999996e-01 5.9547049829882761e+00 3.5289200365937710e+00 2.4290345566815233e+01 -5 -1 0
5664 444 1 4.1499999999999998e-01 2.4053985906530906e-01 3.9971229530841457e-01 2.2787242903132615e+01 2 -2 0
1444 444 2 -8.2999999999999996e-01 5.4566094761759754e-01 5.4345713844454824e-01 1.9178298917897976e+01 0 0 0
5127 444 1 4.1499999999999998e-01 5.8978987635930293e+00 4.4734192757675473e+00 2.4145686740364024e+01 -5 -1 0
4453 444 2 -8.2999999999999996e-01 6.3890975461051824e-01 7.4175372555074945e+00 2.0097118103357843e+01 2 -3 0
2315 444 1 4.1499999999999998e-01 5.6244146245604620e-01 6.6992579680909454e+00 1.6364436586278369e+01 3 0 0
4946 444 1 4.1499999999999998e-01 9.6194831120170683e+00 2.5908652470961240e+00 2.0375121359286499e+01 -1 -1 0
1817 444 1 4.1499999999999998e-01 2.3218920150567683e+00 7.6566703217871384e+00 1.9737460005543173e+01 2 0 0
4947 444 1 4.1499999999999998e-01 9.9295728091377242e+00 1.4390136287171242e+00 1.9442931321545704e+01 -1 -1 0
1818 444 1 4.1499999999999998e-01 3.7662444285767149e+00 7.2607634578888574e+00 1.9516100902913148e+01 2 0 0
3620 444 1 4.1499999999999998e-01 7.2645568316416238e+00 7.5647353449295869e+00 1.6453917544481993e+01 0 2 0
4455 444 1 4.1499999999999998e-01 1.1865490136828080e-01 7.5337874046869464e+00 2.0892135590927161e+01 2 -3 0
4976 444 1 4.1499999999999998e-01 9.3467407764787129e+00 6.5478591886540216e-01 3.1183051801183186e+01 0 2 0
5531 444 1 4.1499999999999998e-01 9.6316132411363071e+00 7.5202633550152909e+00 2.9760487048785762e+01 4 -3 0
5319 444 1 4.1499999999999998e-01 5.8677444177544871e+00 2.9634003396156250e+00 3.0997541871408970e+01 1 3 0
668 444 1 4.1499999999999998e-01 3.4914750009026312e+00 6.3122268218331641e+00 2.7844204856492542e+01 0 -3 0
5532 444 1 4.1499999999999998e-01 8.1235813132349204e+00 7.4672063368405919e+00 2.9882634110402851e+01 4 -3 0
2348 444 1 4.1499999999999998e-01 8.0591306180478817e-01 4.6471656939277114e-02 2.9685248040984156e+01 -2 4 0
3026 444 1 4.1499999999999998e-01 5.4017079995291539e-01 3.2636819811366045e+00 2.6996052848715010e+01 2 -2 0
4545 444 1 4.1499999999999998e-01 7.8727120324273567e+00 6.6887543938943095e+00 2.6125311759134046e+01 4 -3 0
669 444 1 4.1499999999999998e-01 4.1617025070276989e+00 7.5188675228972333e+00 2.7222345866790988e+01 0 -3 0
1639 444 2 -8.2999999999999996e-01 3.3272254010420204e+00 3.1357858169881707e+00 2.4793393376520861e+01 3 -1 0
1641 444 1 4.1499999999999998e-01 2.7503953295483918e+00 3.0943787412436916e+00 2.5556141368147937e+01 3 -1 0
140 444 1 4.1499999999999998e-01 4.4835296588134037e+00 4.0928185458829036e-01 3.0074061443431848e+01 2 2 0
3447 444 1 4.1499999999999998e-01 7.1404913021245315e+00 5.2272016183740702e+00 2.8628629172739263e+01 -2 0 0
667 444 2 -8.2999999999999996e-01 4.3519081117570249e+00 6.6827061667175949e+00 2.7647655058325679e+01 0 -3 0
4977 444 1 4.1499999999999998e-01 9.5892082005524717e+00 1.5378237009270557e+00 3.2388601466588817e+01 0 2 0
2841 444 1 4.1499999999999998e-01 3.8761624496841462e+00 1.4370277395394964e+00 2.5851484892082695e+01 0 2 0
5126 444 1 4.1499999999999998e-01 5.0846326317853574e+00 3.2812948914288933e+00 2.4603215891855729e+01 -5 -1 0
141 444 1 4.1499999999999998e-01 3.0821023109968233e+00 9.5296699515417838e-01 2.9894329578791801e+01 2 2 0
2840 444 1 4.1499999999999998e-01 4.4947671966533109e+00 1.7924177280725064e+00 2.7186745721082474e+01 0 2 0
5590 444 2 -8.2999999999999996e-01 5.2686733496783100e-02 5.4627207670405715e+00 3.0060225129557551e+01 -1 2 0
5318 444 1 4.1499999999999998e-01 4.5193090903768525e+00 2.2756659894591187e+00 3.0972262908765590e+01 1 3 0
4403 444 1 4.1499999999999998e-01 2.2554614903394512e+00 4.0741622186839264e+00 2.8033262584246799e+01 4 -2 0
3446 444 1 4.1499999999999998e-01 6.1597054462316478e+00 6.3620793795630179e+00 2.8423673363400368e+01 -2 0 0
3587 444 1 4.1499999999999998e-01 6.0413966577865397e+00 8.2678740706338250e-01 2.6220325818125922e+01 3 -3 0
4402 444 2 -8.2999999999999996e-01 2.3487657537861821e+00 4.8245537978929116e+00 2.8620152482662689e+01 4 -2 0
3043 444 2 -8.2999999999999996e-01 9.2919922069414351e+00 2.7381187376757148e+00 2.9271176693766538e+01 -2 2 0
3025 444 2 -8.2999999999999996e-01 1.4647333238739426e+00 3.0217668053912763e+00 2.6942265289873447e+01 2 -2 0
4904 444 1 4.1499999999999998e-01 1.0587541392594101e+01 5.0698004278347453e+00 2.6955303966555089e+01 -2 3 0
1875 444 1 4.1499999999999998e-01 7.3743236759460400e+00 1.6185862042160415e+00 3.1164668182644935e+01 2 -6 0
4112 444 1 4.1499999999999998e-01 1.0702468125418509e+01 8.3186516433838742e-01 2.5513268849573159e+01 4 1 0
3044 444 1 4.1499999999999998e-01 9.7988042884481832e+00 1.9261587829213633e+00 2.9261447797840219e+01 -2 2 0
2049 444 1 4.1499999999999998e-01 9.4487584735979855e+00 2.6117200231347102e+00 2.4951561439776640e+01 4 0 0
3445 444 2 -8.2999999999999996e-01 6.7586973678410640e+00 5.9865243674405262e+00 2.9068963648403194e+01 -2 0 0
3027 444 1 4.1499999999999998e-01 1.4787791152291785e+00 2.0836770671360001e+00 2.7132060547903492e+01 2 -2 0
2855 444 1 4.1499999999999998e-01 5.7480952437209236e+00 5.7889795187400006e+00 2.6591083733444371e+01 0 -1 0
3624 444 1 4.1499999999999998e-01 6.2181469318684561e+00 6.1924251609794929e+00 3.0673937322795648e+01 -2 0 0
2854 444 2 -8.2999999999999996e-01 6.5815508995819316e+00 5.6391345075924093e+00 2.6144842555916046e+01 0 -1 0
2048 444 1 4.1499999999999998e-01 8.6866224153877809e+00 1.7179800168940798e+00 2.5906691778542168e+01 4 0 0
2856 444 1 4.1499999999999998e-01 6.4318010141574238e+00 5.9411383905688151e+00 2.5248962118054493e+01 0 -1 0
2 444 1 4.1499999999999998e-01 4.4416045325694418e+00 2.3570060411350351e+00 2.8824682616057430e+01 -3 -1 0
3 444 1 4.1499999999999998e-01 5.7669561242981926e+00 2.9997179994595040e+00 2.8475026029387681e+01 -3 -1 0
2152 444 2 -8.2999999999999996e-01 1.0851804277994407e+01 6.4548502733295940e+00 2.9833793371232741e+01 2 -3 0
4712 444 1 4.1499999999999998e-01 7.0292808251324734e-01 4.8680898075402270e+00 2.5678701358913354e+01 -4 1 0
2839 444 2 -8.2999999999999996e-01 4.3953476365525113e+00 1.0698164177653395e+00 2.6566910957223850e+01 0 2 0
4757 444 1 4.1499999999999998e-01 1.1666192277901444e+00 7.3285565223763971e+00 3.0528827889741429e+01 -1 3 0
5175 444 1 4.1499999999999998e-01 9.7611649234422497e+00 5.0527191528218705e+00 2.4468640654850997e+01 0 0 0
5174 444 1 4.1499999999999998e-01 9.6683281565797348e+00 6.2980835185423532e+00 2.5324411730346458e+01 0 0 0
5173 444 2 -8.2999999999999996e-01 1.0246623632819224e+01 5.5644237091515327e+00 2.5115726554012873e+01 0 0 0
4404 444 1 4.1499999999999998e-01 3.1968253557960553e+00 4.6935383954544569e+00 2.9044253683088311e+01 4 -2 0
3622 444 2 -8.2999999999999996e-01 6.1748274722994712e+00 6.4774638746815034e+00 3.1586684968603084e+01 -2 0 0
3623 444 1 4.1499999999999998e-01 5.3739789448808040e+00 6.9992899131744517e+00 3.1637392146775319e+01 -2 0 0
3045 444 1 4.1499999999999998e-01 9.7578262408645067e+00 3.3190068332108664e+00 2.8669678378589147e+01 -2 2 0
2154 444 1 4.1499999999999998e-01 1.0756719495979528e+01 5.8445660118583680e+00 2.9102531435693201e+01 2 -3 0
4713 444 1 4.1499999999999998e-01 1.0532212417477032e+00 5.9414412541681587e+00 2.4670184254199480e+01 -4 1 0
4711 444 2 -8.2999999999999996e-01 3.6491027595324338e-01 5.6683238553939548e+00 2.5276704635197902e+01 -4 1 0
1 444 2 -8.2999999999999996e-01 4.8643397670815816e+00 2.9114795300140166e+00 2.8168873226241445e+01 -3 -1 0
4903 444 2 -8.2999999999999996e-01 1.0710226237453595e+01 4.5553228945780173e+00 2.7753109244117535e+01 -2 3 0
2047 444 2 -8.2999999999999996e-01 9.5660370385435041e+00 1.8912781630875102e+00 2.5570788533961899e+01 4 0 0
5591 444 1 4.1499999999999998e-01 8.6559690877703055e-01 5.2484787915781572e+00 2.9602503166131736e+01 -1 2 0
5317 444 2 -8.2999999999999996e-01 5.0425283455308971e+00 2.8974673957652524e+00 3.1478065778762065e+01 1 3 0
139 444 2 -8.2999999999999996e-01 3.9998256749144900e+00 1.2226498614605585e+00 2.9930203958559002e+01 2 2 0
1873 444 2 -8.2999999999999996e-01 7.1241238813442589e+00 1.7862766637126228e+00 3.0256091333047632e+01 2 -6 0
1874 444 1 4.1499999999999998e-01 7.8959520595380965e+00 2.1970830879548275e+00 2.9866538502919308e+01 2 -6 0
4975 444 2 -8.2999999999999996e-01 8.9571842076473889e+00 9.2363528350630808e-01 3.2015036598024750e+01 0 2 0
1967 444 1 4.1499999999999998e-01 2.4359372322628352e+00 2.7606835924429203e+00 3.2038815630532987e+01 1 -3 0
2816 444 1 4.1499999999999998e-01 2.3999108668824429e-01 6.2418132498867729e-01 2.7530256092757025e+01 4 0 0