LAMMPS data file via write_data, version 11 Aug 2017, timestep = 500000

7160 atoms
4 atom types
4000 bonds
1 bond types
2000 angles
1 angle types

0.0000000000000000e+00 4.5679949999999998e+01 xlo xhi
0.0000000000000000e+00 4.6885919999999999e+01 ylo yhi
0.0000000000000000e+00 6.5000000000000000e+01 zlo zhi

Masses

1 1.0079
2 15.9994
3 18.9984
4 107.868

Bond Coeffs # harmonic

1 450 0.9572

Angle Coeffs # harmonic

1 500 104.52

Atoms # full

6009 444 4 0.0000000000000000e+00 1.6907200000000000e+00 0.0000000000000000e+00 0.0000000000000000e+00 0 0 0
6010 444 4 0.0000000000000000e+00 4.2285000000000004e+00 1.4651900000000000e+00 0.0000000000000000e+00 0 0 0
6011 444 4 2.7779999999999999e-02 1.6907700000000001e+00 0.0000000000000000e+00 7.1781499999999996e+00 0 0 0
6012 444 4 2.7779999999999999e-02 4.2285500000000003e+00 1.4651900000000000e+00 7.1781499999999996e+00 0 0 0
6013 444 4 0.0000000000000000e+00 2.5366499999999998e+00 1.4651900000000000e+00 2.3926400000000001e+00 0 0 0
6014 444 4 0.0000000000000000e+00 5.0744199999999999e+00 0.0000000000000000e+00 2.3926400000000001e+00 0 0 0
6015 444 4 0.0000000000000000e+00 8.4509000000000001e-01 1.4651900000000000e+00 4.7824200000000001e+00 0 0 0
6016 444 4 0.0000000000000000e+00 3.3828600000000000e+00 0.0000000000000000e+00 4.7824499999999999e+00 0 0 0
6017 444 4 0.0000000000000000e+00 1.6907200000000000e+00 2.9303699999999999e+00 0.0000000000000000e+00 0 0 0
6018 444 4 0.0000000000000000e+00 4.2285000000000004e+00 4.3955599999999997e+00 0.0000000000000000e+00 0 0 0
6019 444 4 2.7779999999999999e-02 1.6907700000000001e+00 2.9303699999999999e+00 7.1781899999999998e+00 0 0 0
6020 444 4 2.7779999999999999e-02 4.2285500000000003e+00 4.3955599999999997e+00 7.1781600000000001e+00 0 0 0
6021 444 4 0.0000000000000000e+00 2.5366499999999998e+00 4.3955599999999997e+00 2.3926400000000001e+00 0 0 0
6022 444 4 0.0000000000000000e+00 5.0744199999999999e+00 2.9303699999999999e+00 2.3926400000000001e+00 0 0 0
6023 444 4 0.0000000000000000e+00 8.4509000000000001e-01 4.3955599999999997e+00 4.7824499999999999e+00 0 0 0
6024 444 4 0.0000000000000000e+00 3.3828700000000000e+00 2.9303699999999999e+00 4.7824400000000002e+00 0 0 0
6025 444 4 0.0000000000000000e+00 1.6907200000000000e+00 5.8607399999999998e+00 0.0000000000000000e+00 0 0 0
6026 444 4 0.0000000000000000e+00 4.2285000000000004e+00 7.3259299999999996e+00 0.0000000000000000e+00 0 0 0
6027 444 4 2.7779999999999999e-02 1.6907700000000001e+00 5.8607399999999998e+00 7.1781499999999996e+00 0 0 0
6028 444 4 2.7779999999999999e-02 4.2285500000000003e+00 7.3259299999999996e+00 7.1781499999999996e+00 0 0 0
6029 444 4 0.0000000000000000e+00 2.5366499999999998e+00 7.3259299999999996e+00 2.3926400000000001e+00 0 0 0
6030 444 4 0.0000000000000000e+00 5.0744199999999999e+00 5.8607399999999998e+00 2.3926400000000001e+00 0 0 0
6031 444 4 0.0000000000000000e+00 8.4509000000000001e-01 7.3259299999999996e+00 4.7824200000000001e+00 0 0 0
6032 444 4 0.0000000000000000e+00 3.3828600000000000e+00 5.8607399999999998e+00 4.7824499999999999e+00 0 0 0
6137 444 4 0.0000000000000000e+00 6.7662699999999996e+00 0.0000000000000000e+00 0.0000000000000000e+00 0 0 0
6139 444 4 2.7779999999999999e-02 6.7663200000000003e+00 0.0000000000000000e+00 7.1781499999999996e+00 0 0 0
6141 444 4 0.0000000000000000e+00 7.6121999999999996e+00 1.4651900000000000e+00 2.3926400000000001e+00 0 0 0
6143 444 4 0.0000000000000000e+00 5.9206399999999997e+00 1.4651900000000000e+00 4.7824200000000001e+00 0 0 0
6145 444 4 0.0000000000000000e+00 6.7662699999999996e+00 2.9303699999999999e+00 0.0000000000000000e+00 0 0 0
6147 444 4 2.7779999999999999e-02 6.7663200000000003e+00 2.9303699999999999e+00 7.1781899999999998e+00 0 0 0
6149 444 4 0.0000000000000000e+00 7.6121999999999996e+00 4.3955599999999997e+00 2.3926400000000001e+00 0 0 0
6151 444 4 0.0000000000000000e+00 5.9206399999999997e+00 4.3955599999999997e+00 4.7824499999999999e+00 0 0 0
6153 444 4 0.0000000000000000e+00 6.7662699999999996e+00 5.8607399999999998e+00 0.0000000000000000e+00 0 0 0
6155 444 4 2.7779999999999999e-02 6.7663200000000003e+00 5.8607399999999998e+00 7.1781499999999996e+00 0 0 0
6157 444 4 0.0000000000000000e+00 7.6121999999999996e+00 7.3259299999999996e+00 2.3926400000000001e+00 0 0 0
6159 444 4 0.0000000000000000e+00 5.9206399999999997e+00 7.3259299999999996e+00 4.7824200000000001e+00 0 0 0
6138 444 4 0.0000000000000000e+00 9.3040500000000002e+00 1.4651900000000000e+00 0.0000000000000000e+00 0 0 0
6140 444 4 2.7779999999999999e-02 9.3041000000000000e+00 1.4651900000000000e+00 7.1781499999999996e+00 0 0 0
6142 444 4 0.0000000000000000e+00 1.0149970000000000e+01 0.0000000000000000e+00 2.3926400000000001e+00 0 0 0
6144 444 4 0.0000000000000000e+00 8.4584100000000007e+00 0.0000000000000000e+00 4.7824499999999999e+00 0 0 0
6146 444 4 0.0000000000000000e+00 9.3040500000000002e+00 4.3955599999999997e+00 0.0000000000000000e+00 0 0 0
6148 444 4 2.7779999999999999e-02 9.3041000000000000e+00 4.3955599999999997e+00 7.1781600000000001e+00 0 0 0
6150 444 4 0.0000000000000000e+00 1.0149970000000000e+01 2.9303699999999999e+00 2.3926400000000001e+00 0 0 0
6152 444 4 0.0000000000000000e+00 8.4584200000000003e+00 2.9303699999999999e+00 4.7824400000000002e+00 0 0 0
6154 444 4 0.0000000000000000e+00 9.3040500000000002e+00 7.3259299999999996e+00 0.0000000000000000e+00 0 0 0
6156 444 4 2.7779999999999999e-02 9.3041000000000000e+00 7.3259299999999996e+00 7.1781499999999996e+00 0 0 0
6158 444 4 0.0000000000000000e+00 1.0149970000000000e+01 5.8607399999999998e+00 2.3926400000000001e+00 0 0 0
6160 444 4 0.0000000000000000e+00 8.4584100000000007e+00 5.8607399999999998e+00 4.7824499999999999e+00 0 0 0
6271 444 4 0.0000000000000000e+00 1.0996190000000000e+01 1.4651900000000000e+00 4.7824200000000001e+00 0 0 0
6279 444 4 0.0000000000000000e+00 1.0996190000000000e+01 4.3955599999999997e+00 4.7824499999999999e+00 0 0 0
6287 444 4 0.0000000000000000e+00 1.0996190000000000e+01 7.3259299999999996e+00 4.7824200000000001e+00 0 0 0
886 444 2 -8.2999999999999996e-01 8.8048335466761554e+00 2.7487480416793244e+00 1.0183152806851821e+01 2 4 0
1325 444 1 4.1499999999999998e-01 8.4501590167081240e+00 1.6663987315372064e+00 1.4966470301059086e+01 1 2 0
1326 444 1 4.1499999999999998e-01 8.4717989268611440e+00 2.3127783173422674e+00 1.3597667753701872e+01 1 2 0
887 444 1 4.1499999999999998e-01 9.2885325888206953e+00 2.0972975397994547e+00 1.0690971259570752e+01 2 4 0
5470 444 2 -8.2999999999999996e-01 3.2102933191968144e+00 3.0996285589963007e-01 1.0048074941518228e+01 -2 2 0
2884 444 2 -8.2999999999999996e-01 4.7067554863642336e+00 4.0495689876609378e+00 1.0983742010790714e+01 5 4 0
2885 444 1 4.1499999999999998e-01 3.9639327307056140e+00 3.9201339241700239e+00 1.1573397419763142e+01 5 4 0
5503 444 2 -8.2999999999999996e-01 5.5223128625297146e+00 1.6023043902364389e+00 1.0523657995048186e+01 3 -3 0
888 444 1 4.1499999999999998e-01 7.9292260865925819e+00 2.3747082834271382e+00 1.0084980891749181e+01 2 4 0
670 444 2 -8.2999999999999996e-01 5.3790731641472354e+00 1.3943811393396754e+00 1.3343255270544619e+01 1 -2 0
671 444 1 4.1499999999999998e-01 5.6927934823389430e+00 5.6816715329501233e-01 1.3710927166582952e+01 1 -2 0
672 444 1 4.1499999999999998e-01 5.3373820800369938e+00 1.2368409334969204e+00 1.2400029248002850e+01 1 -2 0
975 444 1 4.1499999999999998e-01 8.4872470251743319e+00 4.6195898441949170e+00 1.1385513924784462e+01 2 0 0
5504 444 1 4.1499999999999998e-01 5.2327126400626378e+00 2.4691860609852325e+00 1.0808051504451013e+01 3 -3 0
2404 444 2 -8.2999999999999996e-01 2.7987057463670588e+00 3.7969487105168365e+00 1.3574224808658551e+01 2 1 0
2150 444 1 4.1499999999999998e-01 9.5591470789780963e+00 3.5572732012320909e+00 1.4542329404681198e+01 0 1 0
2886 444 1 4.1499999999999998e-01 4.3087914967706684e+00 4.2604260755997005e+00 1.0139114065871203e+01 5 4 0
2405 444 1 4.1499999999999998e-01 2.2596135124892918e+00 3.4370957800946109e+00 1.2869868955442410e+01 2 1 0
5527 444 2 -8.2999999999999996e-01 2.0628724495708792e+00 7.0149179190242990e+00 1.0572195087576425e+01 4 2 0
312 444 1 4.1499999999999998e-01 5.2765958636015087e-01 5.1280335627661855e-01 9.8017585783494354e+00 -2 1 0
5505 444 1 4.1499999999999998e-01 4.7158233793570270e+00 1.1476242067577784e+00 1.0280609643014715e+01 3 -3 0
2151 444 1 4.1499999999999998e-01 9.7839739299040343e+00 4.5887637001634802e+00 1.3457260177843676e+01 0 1 0
973 444 2 -8.2999999999999996e-01 9.2478313520174247e+00 4.9672703550342021e+00 1.1851198149797744e+01 2 0 0
3602 444 1 4.1499999999999998e-01 6.3371502075345036e+00 3.2223713991296883e+00 1.3391402884296269e+01 -5 1 0
1324 444 2 -8.2999999999999996e-01 8.9957287486666075e+00 1.7699792526196660e+00 1.4186818506134536e+01 1 2 0
3601 444 2 -8.2999999999999996e-01 6.6535078342886198e+00 3.8660241053913640e+00 1.4025328020154127e+01 -5 1 0
974 444 1 4.1499999999999998e-01 9.3491251436246632e+00 5.8575124585959220e+00 1.1514388931299020e+01 2 0 0
3603 444 1 4.1499999999999998e-01 6.8250083988352639e+00 3.3578049103018217e+00 1.4818129076865047e+01 -5 1 0
310 444 2 -8.2999999999999996e-01 8.2426343311724815e-01 1.3616196963143523e+00 1.0130040662497743e+01 -2 1 0
5263 444 2 -8.2999999999999996e-01 1.6412833915311127e+00 1.3548381393675477e+00 1.4255196385221860e+01 0 6 0
1122 444 1 4.1499999999999998e-01 1.2678696664205624e-01 6.6204394840556695e+00 1.6211569585695251e+01 2 1 0
5471 444 1 4.1499999999999998e-01 2.5210094300148587e+00 8.3876687494508340e-01 1.0449927998792758e+01 -2 2 0
5265 444 1 4.1499999999999998e-01 7.7143742538809412e-01 1.5925619654893359e+00 1.4576269148330475e+01 0 6 0
2228 444 1 4.1499999999999998e-01 6.4216704805414988e+00 5.3660141386815354e+00 1.3355376388119835e+01 1 -1 0
195 444 1 4.1499999999999998e-01 1.1278477274843555e+01 6.4386911761926546e-01 1.5787387422042544e+01 4 0 0
5264 444 1 4.1499999999999998e-01 2.0456672317825189e+00 2.1892276434088758e+00 1.4017499301492970e+01 0 6 0
5528 444 1 4.1499999999999998e-01 1.6189849867312485e+00 6.9784774371820779e+00 1.1419466391928545e+01 4 2 0
2149 444 2 -8.2999999999999996e-01 1.0001728116081143e+01 4.3877954188760739e+00 1.4367439559899692e+01 0 1 0
2406 444 1 4.1499999999999998e-01 2.8860959964976431e+00 4.7255483813771493e+00 1.3359056586302517e+01 2 1 0
718 444 2 -8.2999999999999996e-01 2.0543225189096028e+00 3.7883787972049587e+00 1.0560452564010378e+01 2 -1 0
3749 444 1 4.1499999999999998e-01 4.7963708640080149e+00 2.2997446317046832e+00 1.4931533899087928e+01 -2 -6 0
850 444 2 -8.2999999999999996e-01 4.8552806240126136e+00 7.6133066770151201e+00 1.0187725382002624e+01 0 4 0
2525 444 1 4.1499999999999998e-01 1.0623758223924034e+01 2.9436974849752784e+00 9.8734168602300993e+00 -1 -1 0
3748 444 2 -8.2999999999999996e-01 4.0797538534485085e+00 2.6552332350723797e+00 1.5457195144401355e+01 -2 -6 0
3750 444 1 4.1499999999999998e-01 3.3997808109210279e+00 2.8732752123268086e+00 1.4819758001966230e+01 -2 -6 0
5101 444 2 -8.2999999999999996e-01 6.8146779536804605e+00 5.7090340551687442e+00 1.0346857339670356e+01 2 1 0
311 444 1 4.1499999999999998e-01 3.8270347572588082e-01 1.4603133930525394e+00 1.0973555419944182e+01 -2 1 0
4341 444 1 4.1499999999999998e-01 4.0623956918499049e+00 6.4396811233825728e+00 1.2942245209163733e+01 -2 -2 0
2227 444 2 -8.2999999999999996e-01 6.1279599481444231e+00 6.2158019736490759e+00 1.3027004924172044e+01 1 -1 0
4361 444 1 4.1499999999999998e-01 1.5302448622893619e+00 6.9304517112812274e+00 1.3228581079678595e+01 -3 3 0
4362 444 1 4.1499999999999998e-01 2.0795124741652060e-01 7.3513961847374834e+00 1.3833758995232635e+01 -3 3 0
5103 444 1 4.1499999999999998e-01 6.3759176815602290e+00 4.9459218784501875e+00 1.0722864108516500e+01 2 1 0
5529 444 1 4.1499999999999998e-01 1.5177025773073562e+00 6.4828834468397361e+00 9.9925734082715145e+00 4 2 0
4360 444 2 -8.2999999999999996e-01 6.0405959361551742e-01 7.0474396859282278e+00 1.3017094752172270e+01 -3 3 0
2361 444 1 4.1499999999999998e-01 1.1141580388238239e+01 6.8533951640585427e+00 1.0141222930053909e+01 2 3 0
851 444 1 4.1499999999999998e-01 4.0374853842653113e+00 7.7757478898837062e+00 1.0657891001917402e+01 0 4 0
4165 444 2 -8.2999999999999996e-01 1.0280954311097036e+01 1.4258833562102916e-01 1.0346751677266198e+01 -3 -4 0
2506 444 2 -8.2999999999999996e-01 4.5522562846729802e+00 6.9708716461181028e+00 1.5837044596011658e+01 0 -2 0
5985 444 1 4.1499999999999998e-01 7.2410749406677901e+00 2.3056928563074583e-01 9.9882133126148389e+00 2 -1 0
2507 444 1 4.1499999999999998e-01 5.0120562778005286e+00 7.6368817461442182e+00 1.5325922047609840e+01 0 -2 0
4340 444 1 4.1499999999999998e-01 3.4870086354867409e+00 6.5912533427938031e+00 1.4334312202605187e+01 -2 -2 0
1120 444 2 -8.2999999999999996e-01 2.9372843115262787e-01 7.3094668179288655e+00 1.5568449074804759e+01 2 1 0
5102 444 1 4.1499999999999998e-01 6.1168605621048835e+00 6.3537414194112527e+00 1.0230087548941901e+01 2 1 0
823 444 2 -8.2999999999999996e-01 9.4018711954674021e+00 7.3295770065839134e+00 1.0246625240470555e+01 2 1 0
825 444 1 4.1499999999999998e-01 8.8923797264924040e+00 6.5555178228901614e+00 1.0006868511938160e+01 2 1 0
2229 444 1 4.1499999999999998e-01 6.9173405442306084e+00 6.6196003928299660e+00 1.2666370447809864e+01 1 -1 0
5134 444 2 -8.2999999999999996e-01 1.0064343883340303e+01 7.1987287975238408e+00 1.5718400579276453e+01 0 -1 0
719 444 1 4.1499999999999998e-01 1.7946045220955218e+00 3.0248509015728762e+00 1.0044891263884898e+01 2 -1 0
720 444 1 4.1499999999999998e-01 1.2379802240337223e+00 4.2647330608001015e+00 1.0711792154180971e+01 2 -1 0
5135 444 1 4.1499999999999998e-01 9.8821827003606657e+00 6.3385926249259574e+00 1.5339962538982864e+01 0 -1 0
4339 444 2 -8.2999999999999996e-01 3.2455394542881102e+00 6.3663139554779162e+00 1.3435798600192076e+01 -2 -2 0
5867 444 1 4.1499999999999998e-01 3.2830871136409039e+00 6.0269185880130749e-03 1.4430366015073171e+01 -3 1 0
1096 444 2 -8.2999999999999996e-01 7.2142305207371029e+00 2.5404374801723972e+00 1.6275793182129899e+01 4 1 0
1098 444 1 4.1499999999999998e-01 6.6421243088477313e+00 2.3020982008443420e+00 1.7005259093284327e+01 4 1 0
4746 444 1 4.1499999999999998e-01 3.1560507410266605e+00 1.6758997841494478e+00 1.6618086856872097e+01 -5 2 0
3504 444 1 4.1499999999999998e-01 6.1783540608070799e+00 5.2163493506675671e+00 1.8211544682933248e+01 -1 1 0
1106 444 1 4.1499999999999998e-01 7.5837103234833050e+00 7.7280487774405247e+00 2.0293963848066383e+01 1 0 0
4745 444 1 4.1499999999999998e-01 3.1835821480396187e+00 1.6371891720253687e-01 1.6684766592090959e+01 -5 2 0
3258 444 1 4.1499999999999998e-01 4.0448176476206275e+00 3.7975149153511190e+00 1.6736314812959261e+01 0 0 0
5078 444 1 4.1499999999999998e-01 2.6303047269293294e+00 4.4604297023030330e+00 1.9981032764501919e+01 0 2 0
3696 444 1 4.1499999999999998e-01 3.6618953275177929e-01 9.9659744910617187e-01 2.0800542540103951e+01 0 6 0
2239 444 2 -8.2999999999999996e-01 5.7295718532066582e+00 5.9861605357965098e-01 2.4089784768702174e+01 1 0 0
5598 444 1 4.1499999999999998e-01 1.0467802609920925e+01 5.0618965548868484e+00 2.1081523300482289e+01 1 -3 0
3295 444 2 -8.2999999999999996e-01 1.0819460912050559e+01 7.3851409152043832e+00 2.0210716454259554e+01 0 2 0
5079 444 1 4.1499999999999998e-01 3.5219865035657030e+00 4.7266392413614602e+00 1.8786909151033150e+01 0 2 0
4342 444 2 -8.2999999999999996e-01 1.5566199527166449e+00 2.1083597997416557e+00 1.9020746068314924e+01 0 2 0
1097 444 1 4.1499999999999998e-01 7.7174360211318920e+00 3.2875264960882582e+00 1.6599635610132921e+01 4 1 0
5773 444 2 -8.2999999999999996e-01 2.5909863191324467e+00 7.1605687957779862e+00 2.2371210022177532e+01 4 1 0
4343 444 1 4.1499999999999998e-01 1.9287379550573402e+00 2.0399447935028170e+00 1.9899995852074071e+01 0 2 0
490 444 2 -8.2999999999999996e-01 7.5335943411061104e+00 6.6951723972385846e+00 2.1712266406250563e+01 3 2 0
3256 444 2 -8.2999999999999996e-01 3.7856049518512376e+00 4.6311610720034038e+00 1.7128838170192907e+01 0 0 0
5414 444 1 4.1499999999999998e-01 8.6809025129314215e+00 2.4336519144805274e-01 1.8574094287495218e+01 3 2 0
3055 444 2 -8.2999999999999996e-01 8.7905209700363525e+00 6.8725960766865199e-02 2.2432427244558557e+01 -1 1 0
3269 444 1 4.1499999999999998e-01 4.7003385859640190e+00 1.4147546777303470e+00 1.7896357077300486e+01 -1 0 0
426 444 1 4.1499999999999998e-01 9.5722780451159366e+00 2.6626270579484745e+00 1.9547641771357469e+01 -5 2 0
4720 444 2 -8.2999999999999996e-01 8.9699954225558685e+00 4.4144424521008547e+00 1.7235143410728703e+01 3 -4 0
3259 444 2 -8.2999999999999996e-01 1.2723302012407582e+00 4.7030151902349049e+00 2.2709376047244056e+01 -1 6 0
424 444 2 -8.2999999999999996e-01 9.1855569714637149e+00 1.8967086507119915e+00 1.9971962136486809e+01 -5 2 0
5077 444 2 -8.2999999999999996e-01 3.4598985573664778e+00 4.8676213475101724e+00 1.9731631831528173e+01 0 2 0
4744 444 2 -8.2999999999999996e-01 3.0669594734219539e+00 9.4334879768961233e-01 1.7227729084988376e+01 -5 2 0
4722 444 1 4.1499999999999998e-01 9.8600594754788506e+00 4.1575333619127663e+00 1.6994279008495340e+01 3 -4 0
4426 444 2 -8.2999999999999996e-01 9.5252656721174453e+00 2.6553478209695509e+00 2.3030392812328500e+01 0 -1 0
3 444 1 4.1499999999999998e-01 8.9506769117894773e+00 4.3169115927882515e+00 2.3529335550239857e+01 -3 -1 0
5719 444 2 -8.2999999999999996e-01 5.4029928140496599e+00 4.8714956117074850e+00 2.1643658320351999e+01 0 1 0
4721 444 1 4.1499999999999998e-01 9.0341860937547924e+00 5.3497119807772888e+00 1.7428489146267808e+01 3 -4 0
3270 444 1 4.1499999999999998e-01 5.8770324292294491e+00 5.4431620436280581e-01 1.8283169315720894e+01 -1 0 0
3268 444 2 -8.2999999999999996e-01 5.5578400178016896e+00 1.4459538864010797e+00 1.8320563152964809e+01 -1 0 0
4428 444 1 4.1499999999999998e-01 9.3093563528029524e+00 3.1361966357129623e+00 2.2231393831282514e+01 0 -1 0
5720 444 1 4.1499999999999998e-01 4.7859902251899493e+00 4.9026040451590935e+00 2.0912514070104450e+01 0 1 0
5721 444 1 4.1499999999999998e-01 6.0596547653723798e+00 4.2284052998707491e+00 2.1376334955968289e+01 0 1 0
4344 444 1 4.1499999999999998e-01 2.2485362340335944e+00 1.7885688198010010e+00 1.8441765605912856e+01 0 2 0
1312 444 2 -8.2999999999999996e-01 6.6870112986652668e+00 2.9936299198506564e+00 2.0319273060095398e+01 -1 0 0
1313 444 1 4.1499999999999998e-01 6.1722784170280498e+00 2.8356780465088343e+00 1.9527860772844171e+01 -1 0 0
1314 444 1 4.1499999999999998e-01 7.5524269050311332e+00 2.6377424417689155e+00 2.0117697463386587e+01 -1 0 0
188 444 1 4.1499999999999998e-01 2.2865032891279311e+00 1.7794493338552220e+00 2.2446114181185290e+01 4 3 0
187 444 2 -8.2999999999999996e-01 1.9440503893847385e+00 2.2626875195132801e+00 2.1694157360357874e+01 4 3 0
4182 444 1 4.1499999999999998e-01 6.1464926637097470e+00 1.2690875984518555e+00 2.1025348779700025e+01 0 -1 0
4180 444 2 -8.2999999999999996e-01 6.0910799102991904e+00 4.9509758844555318e-01 2.1585796049774594e+01 0 -1 0
4427 444 1 4.1499999999999998e-01 9.1828671790645036e+00 1.7742020216864816e+00 2.2880135887339502e+01 0 -1 0
189 444 1 4.1499999999999998e-01 1.6762008132973014e+00 3.1082479893717578e+00 2.2054042415070807e+01 4 3 0
2223 444 1 4.1499999999999998e-01 2.4300155563439496e+00 3.5714647511413449e+00 2.3918146347299114e+01 1 -1 0
3243 444 1 4.1499999999999998e-01 5.6895060607213273e+00 5.0297847150531707e+00 2.3399373576137656e+01 2 -2 0
5596 444 2 -8.2999999999999996e-01 9.6064245035600706e+00 4.6813067250668601e+00 2.0910025960035647e+01 1 -3 0
3260 444 1 4.1499999999999998e-01 3.8357435467516010e-01 5.0283028720552192e+00 2.2566083248555582e+01 -1 6 0
492 444 1 4.1499999999999998e-01 6.6937685092171080e+00 6.3232035368784700e+00 2.1981643445773397e+01 3 2 0
2508 444 1 4.1499999999999998e-01 5.1514240284423432e+00 6.7623846106489918e+00 1.6553817226626105e+01 0 -2 0
425 444 1 4.1499999999999998e-01 9.9048242925269854e+00 1.2682315450001391e+00 2.0034436710817257e+01 -5 2 0
3261 444 1 4.1499999999999998e-01 1.8345436912897548e+00 5.4596409084118154e+00 2.2543046905718960e+01 -1 6 0
3257 444 1 4.1499999999999998e-01 3.8935375491867137e+00 5.2714293773655392e+00 1.6425532510570715e+01 0 0 0
4168 444 2 -8.2999999999999996e-01 8.9926305615671716e+00 7.0742486510939342e+00 1.8391622193418513e+01 -2 -1 0
2221 444 2 -8.2999999999999996e-01 3.1150361523267964e+00 2.9419750310414545e+00 2.4143361217320297e+01 1 -1 0
4560 444 1 4.1499999999999998e-01 9.8546080623989951e-02 2.5639411560569489e+00 1.8352851901286432e+01 1 7 0
1605 444 1 4.1499999999999998e-01 3.5963613308612947e+00 6.8037653651613361e+00 1.9625276646059454e+01 1 2 0
2240 444 1 4.1499999999999998e-01 5.8910007378400877e+00 6.6491656503910046e-01 2.3148627605091637e+01 1 0 0
491 444 1 4.1499999999999998e-01 8.0996157158591870e+00 6.5884277868888868e+00 2.2476764667069268e+01 3 2 0
193 444 2 -8.2999999999999996e-01 1.1326437507878078e+01 4.8799108062387758e-01 1.6730591713045936e+01 4 0 0
5136 444 1 4.1499999999999998e-01 9.7410505932412903e+00 7.1387487215616936e+00 1.6617353467317326e+01 0 -1 0
3503 444 1 4.1499999999999998e-01 6.5100875702558811e+00 6.6083608689343594e+00 1.8705661901650569e+01 -1 1 0
5774 444 1 4.1499999999999998e-01 3.5382577490295057e+00 7.1861843041241702e+00 2.2506311776871076e+01 4 1 0
3502 444 2 -8.2999999999999996e-01 6.0857920342243803e+00 6.1418665731066078e+00 1.7985531218530930e+01 -1 1 0
2 444 1 4.1499999999999998e-01 7.6083341389891110e+00 4.7748751825082980e+00 2.4058750720161473e+01 -3 -1 0
2222 444 1 4.1499999999999998e-01 3.9180210757319367e+00 3.4620444938464585e+00 2.4174587107495874e+01 1 -1 0
3241 444 2 -8.2999999999999996e-01 5.8994098242840849e+00 4.6833285703663785e+00 2.4266634425087275e+01 2 -2 0
1 444 2 -8.2999999999999996e-01 8.4881241943382513e+00 5.0902906431919268e+00 2.3852076289651620e+01 -3 -1 0
4170 444 1 4.1499999999999998e-01 9.7585065156805051e+00 7.0404416474317841e+00 1.8964791383615587e+01 -2 -1 0
194 444 1 4.1499999999999998e-01 1.0440948718479016e+01 2.1858006068245800e-01 1.6974640843520291e+01 4 0 0
4169 444 1 4.1499999999999998e-01 8.3973444648329885e+00 7.6876445070198898e+00 1.8822449067058191e+01 -2 -1 0
1603 444 2 -8.2999999999999996e-01 3.5860285754014321e+00 7.7602467852618755e+00 1.9660904273319428e+01 1 2 0
5597 444 1 4.1499999999999998e-01 9.0059454702452513e+00 5.4263732656770731e+00 2.0933113030072938e+01 1 -3 0
2640 444 1 4.1499999999999998e-01 3.2289716214798698e+00 7.4955398730755807e+00 1.6829922624701233e+01 -1 -1 0
2639 444 1 4.1499999999999998e-01 2.6212685982976383e+00 7.6586594096231710e+00 1.8206869999643612e+01 -1 -1 0
3365 444 1 4.1499999999999998e-01 1.3748051795829741e+00 2.4891727610940868e+00 2.6262208152493471e+01 -3 0 0
2232 444 1 4.1499999999999998e-01 1.0550313923329274e+01 6.8848427472577445e-01 2.5980589661681684e+01 0 2 0
4431 444 1 4.1499999999999998e-01 9.1409528576164401e-01 6.3277570150813842e+00 2.7429358160660893e+01 0 3 0
5539 444 2 -8.2999999999999996e-01 2.5060903049502287e-01 7.6933617231936946e+00 2.8577098199104949e+01 2 2 0
1334 444 1 4.1499999999999998e-01 2.8375825809497530e+00 1.1050718809957119e+00 2.4578927652588291e+01 1 5 0
93 444 1 4.1499999999999998e-01 1.0732964809214661e+01 5.4655613670727350e+00 2.5449153975563732e+01 3 -2 0
2231 444 1 4.1499999999999998e-01 9.2824867397291708e+00 6.5999166548444776e-01 2.6807449475791678e+01 0 2 0
3718 444 2 -8.2999999999999996e-01 1.1369337854482296e+01 1.8634054489052738e+00 2.5172931289172030e+01 -2 0 0
3364 444 2 -8.2999999999999996e-01 9.8329110480296156e-01 2.0606149031839434e+00 2.7023316983726307e+01 -3 0 0
5802 444 1 4.1499999999999998e-01 1.3473921976700209e+00 1.2650023583764811e+00 2.8625567613630050e+01 1 -3 0
1333 444 2 -8.2999999999999996e-01 2.3339169068440460e+00 3.1408730569039894e-01 2.4771012855596108e+01 1 5 0
3275 444 1 4.1499999999999998e-01 6.4016216729606545e-01 6.6866268095443226e+00 2.5415563719324712e+01 0 0 0
3366 444 1 4.1499999999999998e-01 1.0611187671901047e-01 2.4384697925574086e+00 2.7086672237924159e+01 -3 0 0
4799 444 1 4.1499999999999998e-01 4.1049088164307079e-02 5.2023278760850227e+00 3.1919447480038681e+01 1 4 0
3274 444 2 -8.2999999999999996e-01 3.2041103247840924e-01 7.2302192476057776e+00 2.4695494326840340e+01 0 0 0
3878 444 1 4.1499999999999998e-01 7.7744311587644777e-01 6.5427761617825890e+00 3.0550035321697930e+01 -1 2 0
5388 444 1 4.1499999999999998e-01 7.7873035792944778e+00 9.5379671410079980e-01 2.9161102875676519e+01 2 2 0
92 444 1 4.1499999999999998e-01 9.2983045378221529e+00 5.7160091545411511e+00 2.5035728093924163e+01 3 -2 0
5801 444 1 4.1499999999999998e-01 6.6892446095517666e-01 9.6198125492454600e-01 2.9944565507078650e+01 1 -3 0
3877 444 2 -8.2999999999999996e-01 1.2047921816778544e+00 6.0837390033425720e+00 3.1273146614558620e+01 -1 2 0
798 444 1 4.1499999999999998e-01 3.2831116972467504e+00 6.5686599605695051e+00 2.5186439500550303e+01 -2 1 0
3879 444 1 4.1499999999999998e-01 1.7910177285686650e+00 6.7352647651359616e+00 3.1657965783282350e+01 -1 2 0
3242 444 1 4.1499999999999998e-01 5.9374835837739361e+00 5.4556461290006713e+00 2.4830822281781789e+01 2 -2 0
997 444 2 -8.2999999999999996e-01 9.0117787238339790e+00 4.3491440456585027e+00 2.7962117660160814e+01 3 -4 0
1573 444 2 -8.2999999999999996e-01 5.5492139176542086e+00 1.2852460407738397e+00 2.8339810942707825e+01 0 4 0
91 444 2 -8.2999999999999996e-01 9.9196301124752040e+00 5.8732250377761215e+00 2.5746691926463143e+01 3 -2 0
3639 444 1 4.1499999999999998e-01 9.6778281910753829e+00 7.8021170149299590e-01 3.2053438635127947e+01 5 1 0
3734 444 1 4.1499999999999998e-01 7.7931557361048087e+00 6.3449552441225592e+00 2.9520664365251321e+01 6 1 0
998 444 1 4.1499999999999998e-01 9.3407984281717003e+00 4.8707601150815938e+00 2.8694166222254406e+01 3 -4 0
999 444 1 4.1499999999999998e-01 8.9288388409691493e+00 4.9731100954259135e+00 2.7240994055225134e+01 3 -4 0
4429 444 2 -8.2999999999999996e-01 8.9285657308954236e-01 5.6880891715755855e+00 2.6717595436716532e+01 0 3 0
4430 444 1 4.1499999999999998e-01 1.8132972524451736e+00 5.4884843586366960e+00 2.6546775115336647e+01 0 3 0
5386 444 2 -8.2999999999999996e-01 7.4745589359026789e+00 7.8402156641031628e-01 3.0049696667648831e+01 2 2 0
1575 444 1 4.1499999999999998e-01 5.6782401561897453e+00 1.8658119472939376e+00 2.7589792258372952e+01 0 4 0
1574 444 1 4.1499999999999998e-01 6.2118282749239944e+00 1.5606933274277111e+00 2.8973295750136639e+01 0 4 0
3638 444 1 4.1499999999999998e-01 1.0026606839042232e+01 2.2433280805207469e+00 3.1881569303650046e+01 5 1 0
3637 444 2 -8.2999999999999996e-01 9.6529392202648463e+00 1.4945864886740798e+00 3.1416821285353233e+01 5 1 0
3733 444 2 -8.2999999999999996e-01 6.9922140931709631e+00 6.8655954887842618e+00 2.9581145330549717e+01 6 1 0
3834 444 1 4.1499999999999998e-01 9.7502428905799476e+00 4.6466932140447677e+00 3.1079402088039846e+01 4 4 0
3735 444 1 4.1499999999999998e-01 6.6656605480995585e+00 6.7016757814173458e+00 3.0465862765496379e+01 6 1 0
1675 444 2 -8.2999999999999996e-01 6.2456590690372655e+00 2.5610296800768300e+00 2.6049423990533629e+01 2 -4 0
1677 444 1 4.1499999999999998e-01 5.9959440899151391e+00 3.4121336066756816e+00 2.5689568108818428e+01 2 -4 0
1676 444 1 4.1499999999999998e-01 5.9482345622906196e+00 1.9276884568965511e+00 2.5396239944978486e+01 2 -4 0
534 444 1 4.1499999999999998e-01 6.0906779778893263e+00 6.4793109202977153e+00 2.7698621686708467e+01 1 2 0
532 444 2 -8.2999999999999996e-01 6.0322553615028234e+00 6.7941875360890602e+00 2.6796584100294332e+01 1 2 0
456 444 1 4.1499999999999998e-01 5.4955940011182856e+00 7.4392321379648481e+00 3.2292179050683657e+01 -2 -2 0
2536 444 2 -8.2999999999999996e-01 5.3629447700499178e+00 1.2550229243919697e+00 3.1720377320606222e+01 1 -1 0
2538 444 1 4.1499999999999998e-01 4.6872078458944211e+00 8.2253421473678801e-01 3.1198299266631114e+01 1 -1 0
2537 444 1 4.1499999999999998e-01 6.1884710199489756e+00 9.6326358781155741e-01 3.1333575272171217e+01 1 -1 0
3832 444 2 -8.2999999999999996e-01 9.6269231651461062e+00 5.3519639454537531e+00 3.0444092363880145e+01 4 4 0
3833 444 1 4.1499999999999998e-01 1.0168700650951024e+01 6.0690743248307610e+00 3.0773428032110235e+01 4 4 0
796 444 2 -8.2999999999999996e-01 3.5329834116104970e+00 5.9853028364996392e+00 2.5903022062454632e+01 -2 1 0
3416 444 1 4.1499999999999998e-01 7.6306689736848154e+00 2.0374448505700453e+00 2.6930754419436870e+01 1 1 0
797 444 1 4.1499999999999998e-01 4.3753057717511403e+00 6.3243884456300155e+00 2.6205919279603911e+01 -2 1 0
5387 444 1 4.1499999999999998e-01 8.2716794965105418e+00 7.0600392851381755e-01 3.0573856853842869e+01 2 2 0
5800 444 2 -8.2999999999999996e-01 1.1989266330906234e+00 5.6029468512575542e-01 2.9256105345622899e+01 1 -3 0
3417 444 1 4.1499999999999998e-01 8.8022962684367609e+00 2.6338703055546291e+00 2.7681395045551675e+01 1 1 0
2230 444 2 -8.2999999999999996e-01 9.8508318920332218e+00 1.0457232757660995e-01 2.6273853114691768e+01 0 2 0
454 444 2 -8.2999999999999996e-01 6.0974832990405483e+00 6.7896755387722987e+00 3.1928809342684026e+01 -2 -2 0
423 444 1 4.1499999999999998e-01 1.4001747204230215e+00 4.6547269287569453e+00 3.0208184956713595e+01 -3 -3 0
3415 444 2 -8.2999999999999996e-01 8.4628430717509673e+00 1.8053661120306990e+00 2.7342892228852897e+01 1 1 0
422 444 1 4.1499999999999998e-01 2.2758178681894297e+00 3.4465428540832246e+00 3.0463987500596005e+01 -3 -3 0
421 444 2 -8.2999999999999996e-01 1.4512786607709101e+00 3.7110724678541414e+00 3.0056076995070036e+01 -3 -3 0
3479 444 1 4.1499999999999998e-01 1.0587509038529856e+01 7.6274912848254015e+00 2.6198300928932532e+01 3 -5 0
3719 444 1 4.1499999999999998e-01 1.1032470249455621e+01 2.3170140041355478e+00 2.4400279074450800e+01 -2 0 0
533 444 1 4.1499999999999998e-01 6.6082695675923357e+00 7.5582572208581356e+00 2.6771330515272236e+01 1 2 0
3396 444 1 4.1499999999999998e-01 2.6759900125251077e+00 2.1350043860174139e-02 3.0117066694483391e+01 -1 1 0