LAMMPS data file via write_data, version 11 Aug 2017, timestep = 500000

7166 atoms
4 atom types
4000 bonds
1 bond types
2000 angles
1 angle types

0.0000000000000000e+00 4.5679949999999998e+01 xlo xhi
0.0000000000000000e+00 4.6885919999999999e+01 ylo yhi
0.0000000000000000e+00 6.5000000000000000e+01 zlo zhi

Masses

1 1.0079
2 15.9994
3 18.9984
4 107.868

Bond Coeffs # harmonic

1 450 0.9572

Angle Coeffs # harmonic

1 55 104.52

Atoms # full

6015 444 4 0.0000000000000000e+00 1.6907200000000000e+00 0.0000000000000000e+00 0.0000000000000000e+00 0 0 0
6016 444 4 0.0000000000000000e+00 4.2285000000000004e+00 1.4651900000000000e+00 0.0000000000000000e+00 0 0 0
6017 444 4 4.8610000000000000e-02 1.6907700000000001e+00 0.0000000000000000e+00 7.1781499999999996e+00 0 0 0
6018 444 4 4.8610000000000000e-02 4.2285500000000003e+00 1.4651900000000000e+00 7.1781499999999996e+00 0 0 0
6019 444 4 0.0000000000000000e+00 2.5366499999999998e+00 1.4651900000000000e+00 2.3926400000000001e+00 0 0 0
6020 444 4 0.0000000000000000e+00 5.0744199999999999e+00 0.0000000000000000e+00 2.3926400000000001e+00 0 0 0
6021 444 4 0.0000000000000000e+00 8.4509000000000001e-01 1.4651900000000000e+00 4.7824200000000001e+00 0 0 0
6022 444 4 0.0000000000000000e+00 3.3828600000000000e+00 0.0000000000000000e+00 4.7824499999999999e+00 0 0 0
6023 444 4 0.0000000000000000e+00 1.6907200000000000e+00 2.9303699999999999e+00 0.0000000000000000e+00 0 0 0
6024 444 4 0.0000000000000000e+00 4.2285000000000004e+00 4.3955599999999997e+00 0.0000000000000000e+00 0 0 0
6025 444 4 4.8610000000000000e-02 1.6907700000000001e+00 2.9303699999999999e+00 7.1781899999999998e+00 0 0 0
6026 444 4 4.8610000000000000e-02 4.2285500000000003e+00 4.3955599999999997e+00 7.1781600000000001e+00 0 0 0
6027 444 4 0.0000000000000000e+00 2.5366499999999998e+00 4.3955599999999997e+00 2.3926400000000001e+00 0 0 0
6028 444 4 0.0000000000000000e+00 5.0744199999999999e+00 2.9303699999999999e+00 2.3926400000000001e+00 0 0 0
6029 444 4 0.0000000000000000e+00 8.4509000000000001e-01 4.3955599999999997e+00 4.7824499999999999e+00 0 0 0
6030 444 4 0.0000000000000000e+00 3.3828700000000000e+00 2.9303699999999999e+00 4.7824400000000002e+00 0 0 0
6031 444 4 0.0000000000000000e+00 1.6907200000000000e+00 5.8607399999999998e+00 0.0000000000000000e+00 0 0 0
6032 444 4 0.0000000000000000e+00 4.2285000000000004e+00 7.3259299999999996e+00 0.0000000000000000e+00 0 0 0
6033 444 4 4.8610000000000000e-02 1.6907700000000001e+00 5.8607399999999998e+00 7.1781499999999996e+00 0 0 0
6034 444 4 4.8610000000000000e-02 4.2285500000000003e+00 7.3259299999999996e+00 7.1781499999999996e+00 0 0 0
6035 444 4 0.0000000000000000e+00 2.5366499999999998e+00 7.3259299999999996e+00 2.3926400000000001e+00 0 0 0
6036 444 4 0.0000000000000000e+00 5.0744199999999999e+00 5.8607399999999998e+00 2.3926400000000001e+00 0 0 0
6037 444 4 0.0000000000000000e+00 8.4509000000000001e-01 7.3259299999999996e+00 4.7824200000000001e+00 0 0 0
6038 444 4 0.0000000000000000e+00 3.3828600000000000e+00 5.8607399999999998e+00 4.7824499999999999e+00 0 0 0
6143 444 4 0.0000000000000000e+00 6.7662699999999996e+00 0.0000000000000000e+00 0.0000000000000000e+00 0 0 0
6145 444 4 4.8610000000000000e-02 6.7663200000000003e+00 0.0000000000000000e+00 7.1781499999999996e+00 0 0 0
6147 444 4 0.0000000000000000e+00 7.6121999999999996e+00 1.4651900000000000e+00 2.3926400000000001e+00 0 0 0
6149 444 4 0.0000000000000000e+00 5.9206399999999997e+00 1.4651900000000000e+00 4.7824200000000001e+00 0 0 0
6151 444 4 0.0000000000000000e+00 6.7662699999999996e+00 2.9303699999999999e+00 0.0000000000000000e+00 0 0 0
6153 444 4 4.8610000000000000e-02 6.7663200000000003e+00 2.9303699999999999e+00 7.1781899999999998e+00 0 0 0
6155 444 4 0.0000000000000000e+00 7.6121999999999996e+00 4.3955599999999997e+00 2.3926400000000001e+00 0 0 0
6157 444 4 0.0000000000000000e+00 5.9206399999999997e+00 4.3955599999999997e+00 4.7824499999999999e+00 0 0 0
6159 444 4 0.0000000000000000e+00 6.7662699999999996e+00 5.8607399999999998e+00 0.0000000000000000e+00 0 0 0
6161 444 4 4.8610000000000000e-02 6.7663200000000003e+00 5.8607399999999998e+00 7.1781499999999996e+00 0 0 0
6163 444 4 0.0000000000000000e+00 7.6121999999999996e+00 7.3259299999999996e+00 2.3926400000000001e+00 0 0 0
6165 444 4 0.0000000000000000e+00 5.9206399999999997e+00 7.3259299999999996e+00 4.7824200000000001e+00 0 0 0
6144 444 4 0.0000000000000000e+00 9.3040500000000002e+00 1.4651900000000000e+00 0.0000000000000000e+00 0 0 0
6146 444 4 4.8610000000000000e-02 9.3041000000000000e+00 1.4651900000000000e+00 7.1781499999999996e+00 0 0 0
6148 444 4 0.0000000000000000e+00 1.0149970000000000e+01 0.0000000000000000e+00 2.3926400000000001e+00 0 0 0
6150 444 4 0.0000000000000000e+00 8.4584100000000007e+00 0.0000000000000000e+00 4.7824499999999999e+00 0 0 0
6152 444 4 0.0000000000000000e+00 9.3040500000000002e+00 4.3955599999999997e+00 0.0000000000000000e+00 0 0 0
6154 444 4 4.8610000000000000e-02 9.3041000000000000e+00 4.3955599999999997e+00 7.1781600000000001e+00 0 0 0
6156 444 4 0.0000000000000000e+00 1.0149970000000000e+01 2.9303699999999999e+00 2.3926400000000001e+00 0 0 0
6158 444 4 0.0000000000000000e+00 8.4584200000000003e+00 2.9303699999999999e+00 4.7824400000000002e+00 0 0 0
6160 444 4 0.0000000000000000e+00 9.3040500000000002e+00 7.3259299999999996e+00 0.0000000000000000e+00 0 0 0
6162 444 4 4.8610000000000000e-02 9.3041000000000000e+00 7.3259299999999996e+00 7.1781499999999996e+00 0 0 0
6164 444 4 0.0000000000000000e+00 1.0149970000000000e+01 5.8607399999999998e+00 2.3926400000000001e+00 0 0 0
6166 444 4 0.0000000000000000e+00 8.4584100000000007e+00 5.8607399999999998e+00 4.7824499999999999e+00 0 0 0
6277 444 4 0.0000000000000000e+00 1.0996190000000000e+01 1.4651900000000000e+00 4.7824200000000001e+00 0 0 0
6285 444 4 0.0000000000000000e+00 1.0996190000000000e+01 4.3955599999999997e+00 4.7824499999999999e+00 0 0 0
6293 444 4 0.0000000000000000e+00 1.0996190000000000e+01 7.3259299999999996e+00 4.7824200000000001e+00 0 0 0
4637 444 1 4.1499999999999998e-01 4.5253546047948054e+00 2.0232548170784455e+00 1.3435700648011302e+01 -1 -3 0
4636 444 2 -8.2999999999999996e-01 5.2248904027310390e+00 2.6525481616798090e+00 1.3259997990144463e+01 -1 -3 0
4638 444 1 4.1499999999999998e-01 5.2645978471392283e+00 3.1936278433969054e+00 1.4048596688490623e+01 -1 -3 0
5677 444 2 -8.2999999999999996e-01 5.8571417302483599e+00 4.0873704920412601e+00 1.1174756702189834e+01 -5 1 0
874 444 2 -8.2999999999999996e-01 1.4340181372028815e+00 2.7663836501703654e+00 1.2559845677485034e+01 2 0 0
5658 444 1 4.1499999999999998e-01 2.7924853994970884e+00 4.5713558081651735e+00 9.9483381788955558e+00 -1 0 0
5656 444 2 -8.2999999999999996e-01 3.4298050783059923e+00 3.8929553444410754e+00 1.0171561960015472e+01 -1 0 0
5657 444 1 4.1499999999999998e-01 2.9476775492660585e+00 3.0711664067843185e+00 1.0079649514851956e+01 -1 0 0
5678 444 1 4.1499999999999998e-01 5.6361017643324685e+00 3.7116575604768540e+00 1.2026937962353031e+01 -5 1 0
5249 444 1 4.1499999999999998e-01 6.0979908378173153e+00 6.0192224579104012e+00 1.1558369750387959e+01 3 2 0
5679 444 1 4.1499999999999998e-01 5.0250324009129708e+00 4.1174206338884725e+00 1.0702609560498340e+01 -5 1 0
4465 444 2 -8.2999999999999996e-01 7.5721811309329299e+00 1.1549343592164700e+00 1.2840217218789467e+01 -4 0 0
1749 444 1 4.1499999999999998e-01 7.2233533359275883e+00 3.7603798965188209e+00 1.0029256462765570e+01 1 0 0
1747 444 2 -8.2999999999999996e-01 8.1391157179961695e+00 3.5534534740648009e+00 9.8427267408530650e+00 1 0 0
4466 444 1 4.1499999999999998e-01 6.6577560655239285e+00 1.1652067906819654e+00 1.3122977629612738e+01 -4 0 0
875 444 1 4.1499999999999998e-01 1.9271292548088443e+00 3.5848827303819042e+00 1.2615817223592158e+01 2 0 0
327 444 1 4.1499999999999998e-01 8.8133395877215399e+00 4.2498933311028129e+00 1.2604078148908441e+01 -2 0 0
4467 444 1 4.1499999999999998e-01 7.5434028758587806e+00 8.1146880427866941e-01 1.1947224959379160e+01 -4 0 0
325 444 2 -8.2999999999999996e-01 9.4410311283587465e+00 3.7153911155913852e+00 1.3090434681748068e+01 -2 0 0
3445 444 2 -8.2999999999999996e-01 1.2317957620475073e+00 7.1241990741295558e-01 1.0394233752140339e+01 3 -1 0
3482 444 1 4.1499999999999998e-01 1.0441074445344132e+01 3.9180884893876740e+00 1.0042962802939751e+01 1 -3 0
5864 444 1 4.1499999999999998e-01 9.1545700750698291e+00 5.6258714501392264e+00 1.0233418053340641e+01 -1 -3 0
1748 444 1 4.1499999999999998e-01 8.1588829636803624e+00 2.5994955233536690e+00 9.7665252337610529e+00 1 0 0
1416 444 1 4.1499999999999998e-01 1.0065311339497183e+00 5.5839009674369198e+00 9.9586334625284092e+00 -3 1 0
333 444 1 4.1499999999999998e-01 3.0372803725949451e+00 5.0637628295373434e+00 1.5011412076021781e+01 -1 2 0
331 444 2 -8.2999999999999996e-01 3.8411086868074622e+00 4.5452933459267717e+00 1.4975618910115337e+01 -1 2 0
5770 444 2 -8.2999999999999996e-01 3.4387335658155429e+00 1.0589293577157819e+00 1.4379774131297873e+01 4 1 0
5772 444 1 4.1499999999999998e-01 3.0340324113240653e+00 1.4177249723754235e+00 1.5169530135515760e+01 4 1 0
326 444 1 4.1499999999999998e-01 9.0421138820429174e+00 2.8458496921162681e+00 1.3121976722212361e+01 -2 0 0
5863 444 2 -8.2999999999999996e-01 9.1712123531296363e+00 6.5825161732611379e+00 1.0205386254104836e+01 -1 -3 0
5865 444 1 4.1499999999999998e-01 1.0063465299187811e+01 6.8146612482263880e+00 1.0462728926295821e+01 -1 -3 0
3446 444 1 4.1499999999999998e-01 5.8164113338725421e-01 1.0600434181126859e+00 9.7837514016378950e+00 3 -1 0
5250 444 1 4.1499999999999998e-01 5.6213138693933020e+00 6.7402880855712466e+00 1.2801244850601902e+01 3 2 0
5248 444 2 -8.2999999999999996e-01 5.6442568567662414e+00 6.8111076715240575e+00 1.1846944032537815e+01 3 2 0
2422 444 2 -8.2999999999999996e-01 8.1440377753560131e+00 8.1836425512306465e-01 9.6613469156850460e+00 1 2 0
1256 444 1 4.1499999999999998e-01 5.6283401590892961e+00 5.6809755278431657e+00 1.4722417636824945e+01 0 1 0
876 444 1 4.1499999999999998e-01 1.9021315031335619e+00 2.1641645828635614e+00 1.3138148685997233e+01 2 0 0
332 444 1 4.1499999999999998e-01 4.2308260761166743e+00 4.6464905457471035e+00 1.5844014641179431e+01 -1 2 0
3447 444 1 4.1499999999999998e-01 7.2280084321902471e-01 4.4127449884040981e-01 1.1158194541964471e+01 3 -1 0
4051 444 2 -8.2999999999999996e-01 6.6483101849789894e-01 6.6902547603852502e+00 1.2715174803319673e+01 -5 0 0
3042 444 1 4.1499999999999998e-01 6.6159556957965271e-01 3.2870348817042352e+00 1.0810125724845493e+01 -1 5 0
2424 444 1 4.1499999999999998e-01 8.8341486755606855e+00 1.5550602896644705e-01 9.6368979040456786e+00 1 2 0
3040 444 2 -8.2999999999999996e-01 3.1846876686082365e-01 3.6251558230348091e+00 9.9829799554374468e+00 -1 5 0
1257 444 1 4.1499999999999998e-01 6.1174534845464068e+00 7.0806169210559098e+00 1.5028468737961084e+01 0 1 0
1255 444 2 -8.2999999999999996e-01 6.1646869466074259e+00 6.3899030622409656e+00 1.4367473114254896e+01 0 1 0
5771 444 1 4.1499999999999998e-01 3.0786395515842764e+00 1.7512683917173436e-01 1.4305901037974641e+01 4 1 0
1414 444 2 -8.2999999999999996e-01 1.7921927222843117e+00 5.9539041352319684e+00 1.0361206898555643e+01 -3 1 0
1415 444 1 4.1499999999999998e-01 1.5732584458616063e+00 6.0290890787130627e+00 1.1289994744727032e+01 -3 1 0
4280 444 1 4.1499999999999998e-01 1.0514094256632230e+01 6.7958396380821862e+00 1.3970517931674850e+01 4 -5 0
4052 444 1 4.1499999999999998e-01 1.3721801800107609e+00 6.7640799388847270e+00 1.3355829799834479e+01 -5 0 0
2617 444 2 -8.2999999999999996e-01 1.0056729267336607e+01 3.9585633110021670e+00 1.5592585436122187e+01 -1 3 0
1721 444 1 4.1499999999999998e-01 9.1433099472121064e+00 8.1283089868806846e-01 1.3707344812374208e+01 1 0 0
2423 444 1 4.1499999999999998e-01 7.3490045047522852e+00 3.2936974817335368e-01 9.8735691085091712e+00 1 2 0
3481 444 2 -8.2999999999999996e-01 1.1364339635230522e+01 3.6741163913975869e+00 9.9774580979334075e+00 1 -3 0
793 444 2 -8.2999999999999996e-01 2.1080421337864279e+00 6.8576995500839102e+00 1.5486405007265830e+01 -2 -1 0
4279 444 2 -8.2999999999999996e-01 1.1419655494247049e+01 7.0081387608113728e+00 1.3744418332260151e+01 4 -5 0
3583 444 2 -8.2999999999999996e-01 9.0021938709018396e+00 6.3671037228147425e+00 1.4775880902102525e+01 1 1 0
2618 444 1 4.1499999999999998e-01 1.0898861228787567e+01 3.6119564051812918e+00 1.5887389012789265e+01 -1 3 0
2619 444 1 4.1499999999999998e-01 1.0140536886777001e+01 4.0153708739160709e+00 1.4640755098394619e+01 -1 3 0
3585 444 1 4.1499999999999998e-01 9.2450417156529525e+00 5.5877766165203022e+00 1.5275787903550885e+01 1 1 0
3584 444 1 4.1499999999999998e-01 8.1411397480665908e+00 6.1604104204836583e+00 1.4412430248226661e+01 1 1 0
1720 444 2 -8.2999999999999996e-01 9.6635841898467927e+00 5.6352398143783133e-01 1.4471146207688802e+01 1 0 0
5412 444 1 4.1499999999999998e-01 1.1276246665119357e+01 3.3092560526954318e-01 1.3790112648039562e+01 0 1 0
3528 444 1 4.1499999999999998e-01 2.7698551064216863e+00 7.4650864913712187e+00 9.8058561782422178e+00 -1 1 0
794 444 1 4.1499999999999998e-01 1.7412941373474844e+00 7.6989545085408819e+00 1.5214342878730260e+01 -2 -1 0
1210 444 2 -8.2999999999999996e-01 1.9658397807410839e+00 1.7770590226176786e+00 1.6577849733844150e+01 2 0 0
1212 444 1 4.1499999999999998e-01 2.0443408398474112e+00 2.6967301845231120e+00 1.6831375399412920e+01 2 0 0
1573 444 2 -8.2999999999999996e-01 5.1228523597749236e+00 5.2862033001339030e+00 1.7115519478019255e+01 1 -1 0
1575 444 1 4.1499999999999998e-01 6.0533307768663898e+00 5.0661278497610347e+00 1.7160335208457738e+01 1 -1 0
1574 444 1 4.1499999999999998e-01 4.9400078333354882e+00 5.7260179278165317e+00 1.7945798192184057e+01 1 -1 0
2757 444 1 4.1499999999999998e-01 2.6331850924759692e-01 1.9459718457984325e+00 1.9976408503708733e+01 1 -2 0
4856 444 1 4.1499999999999998e-01 9.9766949121715829e+00 5.7806861589987992e+00 2.0259695469668539e+01 3 0 0
1037 444 1 4.1499999999999998e-01 5.3702010171303520e+00 7.4885078932379443e+00 2.0211575564180031e+01 2 0 0
1974 444 1 4.1499999999999998e-01 3.5770427243231580e+00 1.6453709360723148e+00 2.2847493270206861e+01 -2 3 0
5053 444 2 -8.2999999999999996e-01 2.7005918263282673e+00 7.5407013697737408e+00 2.1784255584534741e+01 0 6 0
1211 444 1 4.1499999999999998e-01 1.4324840046554550e+00 1.3825826473733487e+00 1.7267887485210789e+01 2 0 0
2379 444 1 4.1499999999999998e-01 3.6355253487524601e+00 3.7759833892258132e-01 1.8941581231893757e+01 -1 0 0
3669 444 1 4.1499999999999998e-01 1.0834886199352615e+01 1.2153317656587226e+00 2.0376558424477658e+01 4 2 0
5257 444 2 -8.2999999999999996e-01 1.9182362048830492e+00 4.1509909783390615e+00 1.8092848321145780e+01 1 2 0
936 444 1 4.1499999999999998e-01 1.9155166694064669e+00 6.3108132256975207e+00 2.3755169246649476e+01 2 0 0
5978 444 1 4.1499999999999998e-01 6.7056097444021603e+00 2.5987612156066935e+00 1.7072801570950428e+01 1 -1 0
5977 444 2 -8.2999999999999996e-01 6.0939173186333342e+00 1.8627789837043445e+00 1.7092665976787845e+01 1 -1 0
2411 444 1 4.1499999999999998e-01 8.6668231215954563e+00 8.6072953995958423e-01 2.0377478575960133e+01 3 0 0
2165 444 1 4.1499999999999998e-01 7.8594274447088477e+00 4.5005623558830639e+00 1.7997505369948566e+01 1 2 0
2164 444 2 -8.2999999999999996e-01 7.6389324755745669e+00 4.5086042233620010e+00 1.7066082195837499e+01 1 2 0
2166 444 1 4.1499999999999998e-01 8.4785510852817438e+00 4.3988135521739924e+00 1.6619743330712577e+01 1 2 0
2015 444 1 4.1499999999999998e-01 1.0185969166960543e+01 4.1755175663653370e+00 2.2875954643937892e+01 0 1 0
5414 444 1 4.1499999999999998e-01 4.5630719732673972e+00 2.9433445107088594e+00 1.9777971354753259e+01 6 1 0
4525 444 2 -8.2999999999999996e-01 7.3093780223542746e+00 1.3984112802922941e+00 1.9634505066241442e+01 -3 1 0
1275 444 1 4.1499999999999998e-01 9.7451222734276932e+00 3.1834815316958216e+00 1.9168685072603274e+01 0 1 0
5259 444 1 4.1499999999999998e-01 1.6961469700790768e+00 5.0749745255304042e+00 1.7978119162668207e+01 1 2 0
1274 444 1 4.1499999999999998e-01 9.0011266683805786e+00 3.5791868638084248e+00 2.0426374572040583e+01 0 1 0
5413 444 2 -8.2999999999999996e-01 4.2265559269116704e+00 2.3182015230835535e+00 1.9135954482519807e+01 6 1 0
4526 444 1 4.1499999999999998e-01 7.3784574083776215e+00 1.5108086539784960e+00 1.8686440319997153e+01 -3 1 0
3000 444 1 4.1499999999999998e-01 5.1912393115628452e+00 4.6780358298729636e+00 2.2017607847465328e+01 -2 0 0
2998 444 2 -8.2999999999999996e-01 4.8871280513326187e+00 4.0092032013004824e+00 2.1404084317599182e+01 -2 0 0
2999 444 1 4.1499999999999998e-01 4.6594843503457000e+00 3.2618855642480087e+00 2.1957190648435933e+01 -2 0 0
5979 444 1 4.1499999999999998e-01 5.3015189546806551e+00 2.2200584438097692e+00 1.7493525445943401e+01 1 -1 0
3624 444 1 4.1499999999999998e-01 3.8488111979034008e+00 5.1334549973267380e+00 2.0302810239800067e+01 0 1 0
3623 444 1 4.1499999999999998e-01 3.4059691098315756e+00 6.5368086465667545e+00 2.0658316335894590e+01 0 1 0
5415 444 1 4.1499999999999998e-01 3.5331203259336346e+00 2.7937671816486365e+00 1.8678552598301525e+01 6 1 0
2171 444 1 4.1499999999999998e-01 9.0772750658500296e+00 1.9895115995767239e+00 2.3856179454649123e+01 2 -1 0
145 444 2 -8.2999999999999996e-01 4.9718404996638386e+00 5.8191266818344891e+00 2.3328575939088552e+01 0 -1 0
1273 444 2 -8.2999999999999996e-01 8.9393152292699849e+00 3.6021017066895351e+00 1.9471446971255411e+01 0 1 0
2756 444 1 4.1499999999999998e-01 2.4708673648528877e-02 3.3173824634576583e+00 2.0571550347586090e+01 1 -2 0
4575 444 1 4.1499999999999998e-01 2.9992468885892918e+00 7.2675613941026294e+00 1.8168896076925506e+01 0 1 0
2170 444 2 -8.2999999999999996e-01 9.4039166804776180e+00 2.7868744904874174e+00 2.4273012985055637e+01 2 -1 0
3622 444 2 -8.2999999999999996e-01 3.7714590973621207e+00 6.0168889416101656e+00 1.9942542344292384e+01 0 1 0
147 444 1 4.1499999999999998e-01 5.1623291577245567e+00 5.7051968139578255e+00 2.4259685957188132e+01 0 -1 0
5505 444 1 4.1499999999999998e-01 1.0818475455071951e+01 7.7617546446251122e+00 2.3444431928117890e+01 0 2 0
4527 444 1 4.1499999999999998e-01 6.6284588207693238e+00 2.0163545986800155e+00 1.9900450374981766e+01 -3 1 0
146 444 1 4.1499999999999998e-01 4.0220727554977422e+00 5.9317367410827897e+00 2.3289948838912515e+01 0 -1 0
2014 444 2 -8.2999999999999996e-01 1.0511672148397773e+01 3.8968439309021559e+00 2.2020098125948326e+01 0 1 0
1972 444 2 -8.2999999999999996e-01 4.4636312417189146e+00 1.9982033186873616e+00 2.2923006251472557e+01 -2 3 0
3722 444 1 4.1499999999999998e-01 1.0616684584846283e+01 3.0480769950629866e-01 1.6662328846216610e+01 -1 0 0
1973 444 1 4.1499999999999998e-01 4.8611564362569615e+00 1.4978540389589943e+00 2.3635646714142030e+01 -2 3 0
3160 444 2 -8.2999999999999996e-01 6.4141729542282544e+00 8.1785200954162779e-02 2.4233322171217349e+01 1 -3 0
2410 444 2 -8.2999999999999996e-01 9.4667417961810383e+00 3.5756750797299225e-01 2.0529761021070104e+01 3 0 0
3667 444 2 -8.2999999999999996e-01 1.1331858139399802e+01 1.9387032542954645e+00 1.9994479321931070e+01 4 2 0
2636 444 1 4.1499999999999998e-01 8.2252802520519044e+00 6.6666718113589400e+00 2.2922521202843388e+01 2 1 0
4857 444 1 4.1499999999999998e-01 1.0344465903288260e+01 7.0020550411935218e+00 1.9444282651176032e+01 3 0 0
2637 444 1 4.1499999999999998e-01 6.7173753020292439e+00 6.6655851439555924e+00 2.2787923424610018e+01 2 1 0
5457 444 1 4.1499999999999998e-01 1.6502273587166463e+00 2.7803792863171370e+00 2.4106896841327693e+01 0 1 0
720 444 1 4.1499999999999998e-01 1.1197330846680737e+01 6.7827402320433494e-01 2.3890697919915642e+01 2 1 0
3878 444 1 4.1499999999999998e-01 1.5733513177357363e+00 6.1703848023185603e-01 2.1508167641937618e+01 1 3 0
5258 444 1 4.1499999999999998e-01 1.6327236781340377e+00 3.9442513628708613e+00 1.8982777214865177e+01 1 2 0
3668 444 1 4.1499999999999998e-01 1.1409322635051886e+01 2.5773941728538570e+00 2.0703214063555453e+01 4 2 0
2635 444 2 -8.2999999999999996e-01 7.4969276989264477e+00 7.1740478381102264e+00 2.2564325642802334e+01 2 1 0
2755 444 2 -8.2999999999999996e-01 6.1970788268530186e-01 2.5685695862466100e+00 2.0610120695743923e+01 1 -2 0
4855 444 2 -8.2999999999999996e-01 1.0728031497730356e+01 6.2550799460752264e+00 1.9903780123938674e+01 3 0 0
5503 444 2 -8.2999999999999996e-01 1.0250429571299509e+01 7.7274483891304300e+00 2.4214093794075577e+01 0 2 0
795 444 1 4.1499999999999998e-01 2.6178100486335953e+00 7.0605348882028629e+00 1.6270768653089750e+01 -2 -1 0
3879 444 1 4.1499999999999998e-01 2.6277435986826325e+00 8.9070647324490437e-02 2.0558745493798121e+01 1 3 0
5961 444 1 4.1499999999999998e-01 1.1189940722325776e+01 1.8517320548847838e+00 3.1204895463040771e+01 -2 -2 0
1684 444 2 -8.2999999999999996e-01 3.8063975383383801e+00 7.2559748382052582e+00 2.9025873474495551e+01 1 1 0
2829 444 1 4.1499999999999998e-01 1.0581859376350039e-01 5.5224270543965313e+00 3.2360051544379388e+01 -1 0 0
2677 444 2 -8.2999999999999996e-01 3.1712568568942706e-01 1.9639856924647678e+00 2.8519966126854357e+01 -1 3 0
5632 444 2 -8.2999999999999996e-01 2.3536340259308304e+00 8.7421802189408682e-01 2.4580633697722050e+01 1 -2 0
935 444 1 4.1499999999999998e-01 1.6253448423154468e+00 5.0139564144673203e+00 2.4480329771862049e+01 2 0 0
3611 444 1 4.1499999999999998e-01 5.5559321634704544e+00 2.8437829683282536e+00 2.7205227499503657e+01 -3 1 0
5960 444 1 4.1499999999999998e-01 1.0548778638856239e+01 8.8942138759724498e-01 3.0227774931382747e+01 -2 -2 0
1784 444 1 4.1499999999999998e-01 1.6334469551134640e+00 3.0059084377810694e+00 3.1494698505376089e+01 -2 3 0
3467 444 1 4.1499999999999998e-01 4.1066671023912766e+00 5.1640233163071403e-01 2.7220605975001188e+01 1 1 0
934 444 2 -8.2999999999999996e-01 2.2145556178675894e+00 5.7683052106412100e+00 2.4484890266120832e+01 2 0 0
3837 444 1 4.1499999999999998e-01 4.1800540861981341e+00 3.8691941713008027e-01 3.0771425648360303e+01 2 0 0
5634 444 1 4.1499999999999998e-01 2.3385618854244008e+00 1.2140226919182027e+00 2.5475361288757096e+01 1 -2 0
3221 444 1 4.1499999999999998e-01 8.7444481832017740e+00 4.3533811638889341e+00 2.4618079666903995e+01 -3 0 0
3222 444 1 4.1499999999999998e-01 9.1595882445226007e+00 5.6222604884296734e+00 2.5331872248593864e+01 -3 0 0
2931 444 1 4.1499999999999998e-01 9.1051444222433258e+00 3.8042445399048019e+00 2.7136947357049806e+01 -2 0 0
4095 444 1 4.1499999999999998e-01 9.4510657365082160e+00 2.0992511207791544e+00 2.8273425099729550e+01 2 5 0
3220 444 2 -8.2999999999999996e-01 8.4239214974916212e+00 5.2191810513118622e+00 2.4870836569799557e+01 -3 0 0
4094 444 1 4.1499999999999998e-01 9.6999059898074940e+00 6.3529119398598122e-01 2.7978814091879485e+01 2 5 0
2172 444 1 4.1499999999999998e-01 1.0277178824993840e+01 2.5528501351456390e+00 2.4587463182582919e+01 2 -1 0
5090 444 1 4.1499999999999998e-01 1.0220168837173894e+01 6.8261448424896320e+00 2.7220068824906217e+01 -1 1 0
2718 444 1 4.1499999999999998e-01 1.7355800938468373e+00 1.8133769737327339e+00 2.7625987032353304e+01 2 -3 0
2957 444 1 4.1499999999999998e-01 2.4570310852927260e-01 6.3512225806670299e+00 2.9785508599615980e+01 -2 1 0
5455 444 2 -8.2999999999999996e-01 9.0436639596814750e-01 3.2731355208511039e+00 2.4449118215753003e+01 0 1 0
3647 444 1 4.1499999999999998e-01 1.0828893614608395e+01 7.2870200948826138e+00 2.9220519266192429e+01 2 -2 0
1785 444 1 4.1499999999999998e-01 2.4477674491680799e+00 1.7941561807529760e+00 3.1094156579545448e+01 -2 3 0
5268 444 1 4.1499999999999998e-01 5.4642022982690914e+00 5.0306321684840976e+00 2.6476987025238177e+01 0 4 0
2716 444 2 -8.2999999999999996e-01 2.4102319700036570e+00 1.7306481552983699e+00 2.6952019207255184e+01 2 -3 0
3341 444 1 4.1499999999999998e-01 9.0820190762964295e+00 6.1352683685002196e+00 3.1701718040451677e+01 0 -1 0
5266 444 2 -8.2999999999999996e-01 5.7304771357999345e+00 5.6848668283055517e+00 2.5830994228810901e+01 0 4 0
2717 444 1 4.1499999999999998e-01 3.1539185511493759e+00 2.2263076530454167e+00 2.7294778061920127e+01 2 -3 0
1783 444 2 -8.2999999999999996e-01 1.7465557701347512e+00 2.3696264741930371e+00 3.0788593755242413e+01 -2 3 0
5850 444 1 4.1499999999999998e-01 5.1954084256255797e+00 7.3245222201934386e+00 2.6107134555231578e+01 2 1 0
2929 444 2 -8.2999999999999996e-01 8.7708851537995276e+00 3.5130625991828288e+00 2.7985307986435519e+01 -2 0 0
5456 444 1 4.1499999999999998e-01 9.0836211696792646e-01 3.0925336555308238e+00 2.5389117872222613e+01 0 1 0
3610 444 2 -8.2999999999999996e-01 4.8171198472110417e+00 3.1513902997868617e+00 2.7730362623315841e+01 -3 1 0
3612 444 1 4.1499999999999998e-01 5.1557518820840782e+00 3.1840976495977280e+00 2.8625064527463600e+01 -3 1 0
3333 444 1 4.1499999999999998e-01 1.2444213897909826e+00 5.0967037639645909e+00 2.8141529562930149e+01 -1 -2 0
3331 444 2 -8.2999999999999996e-01 1.5945962044333897e+00 5.3791020041806137e+00 2.8986432380694122e+01 -1 -2 0
3332 444 1 4.1499999999999998e-01 1.8709411848065081e+00 4.5688347055782357e+00 2.9414605511653605e+01 -1 -2 0
3289 444 2 -8.2999999999999996e-01 3.6550512617773800e+00 1.5924940648044195e+00 3.2479723823253238e+01 -2 1 0
2196 444 1 4.1499999999999998e-01 7.4757164306485340e+00 2.6804693639918171e+00 2.5434497719433292e+01 1 1 0
4093 444 2 -8.2999999999999996e-01 9.8231536767927992e+00 1.3032953725184906e+00 2.8653211752337054e+01 2 5 0
5267 444 1 4.1499999999999998e-01 6.6651314615364887e+00 5.5256705828580479e+00 2.5699425574155594e+01 0 4 0
646 444 2 -8.2999999999999996e-01 6.4116592326833404e+00 4.7783482593345710e+00 3.1835030488480726e+01 -2 0 0
5377 444 2 -8.2999999999999996e-01 6.3431765627560202e+00 2.6871934191616584e+00 3.0048382690810861e+01 2 1 0
5378 444 1 4.1499999999999998e-01 6.1980863484450168e+00 3.1847967348947996e+00 3.0853101195225502e+01 2 1 0
2820 444 1 4.1499999999999998e-01 5.6770088574743056e+00 7.1289058420978515e+00 3.0349246169964587e+01 1 -1 0
2818 444 2 -8.2999999999999996e-01 6.2836871072668217e+00 7.1109961780776603e+00 3.1089417163022002e+01 1 -1 0
5091 444 1 4.1499999999999998e-01 1.0424184183930111e+01 6.9199209037921525e+00 2.5722911856734850e+01 -1 1 0
2194 444 2 -8.2999999999999996e-01 6.8660974769008787e+00 2.2349747831818045e+00 2.6022826840396093e+01 1 1 0
647 444 1 4.1499999999999998e-01 7.2599142960787617e+00 4.5297582283511364e+00 3.1467745628608618e+01 -2 0 0
2195 444 1 4.1499999999999998e-01 6.6091691810541668e+00 1.4443364802377272e+00 2.5548368449806048e+01 1 1 0
5379 444 1 4.1499999999999998e-01 7.1756063607972154e+00 2.2368442064604310e+00 3.0191485080519715e+01 2 1 0
1899 444 1 4.1499999999999998e-01 9.9771425603853867e+00 4.4299699824483962e+00 3.0597584738380160e+01 -1 2 0
1898 444 1 4.1499999999999998e-01 8.8731725743814067e+00 4.0279222823990519e+00 2.9642858054197692e+01 -1 2 0
3340 444 2 -8.2999999999999996e-01 9.4441658627556304e+00 6.5455549112142064e+00 3.2487050377961886e+01 0 -1 0
648 444 1 4.1499999999999998e-01 6.3179521102250762e+00 5.7055452399059527e+00 3.1616497585594459e+01 -2 0 0
2930 444 1 4.1499999999999998e-01 7.8958754889842746e+00 3.1747548500622593e+00 2.7795207690688610e+01 -2 0 0
5439 444 1 4.1499999999999998e-01 4.7896714807864366e-01 6.1976949571961457e+00 2.6117561063215813e+01 -2 -1 0
1897 444 2 -8.2999999999999996e-01 9.0261738688792548e+00 4.4467736347389684e+00 3.0489844480538761e+01 -1 2 0
2345 444 1 4.1499999999999998e-01 8.8723369204313869e+00 5.4789011388359243e-01 3.0882388481556603e+01 3 -2 0
2344 444 2 -8.2999999999999996e-01 7.9227165019096084e+00 4.3368969941178465e-01 3.0919957654344756e+01 3 -2 0
5959 444 2 -8.2999999999999996e-01 1.0883041757488765e+01 9.4879435744773533e-01 3.1122746927734205e+01 -2 -2 0
5089 444 2 -8.2999999999999996e-01 1.0410110945995239e+01 6.2942957405782263e+00 2.6447223223569775e+01 -1 1 0
5849 444 1 4.1499999999999998e-01 4.4440695908784456e+00 7.6831015575166113e+00 2.7371573707337877e+01 2 1 0
1686 444 1 4.1499999999999998e-01 3.2376432664191817e+00 6.5473813291239322e+00 2.8724799411045797e+01 1 1 0
2679 444 1 4.1499999999999998e-01 6.3621344351766662e-01 2.1942543166717550e+00 2.9392543464982641e+01 -1 3 0
5976 444 1 4.1499999999999998e-01 9.1202226418311910e-02 1.3964737867993904e-02 2.7284550303530658e+01 2 1 0
1254 444 1 4.1499999999999998e-01 7.3417973338051521e+00 6.8473343723719715e+00 3.4359786541686006e+01 -1 1 0
5912 444 1 4.1499999999999998e-01 1.0997947870564392e+01 1.7920784160912249e+00 3.5375588074420165e+01 0 -1 0
2827 444 2 -8.2999999999999996e-01 5.7825838556504572e-01 4.7039132143633537e+00 3.2511933372519096e+01 -1 0 0
2256 444 1 4.1499999999999998e-01 3.3456815840547485e+00 6.1983401806142435e+00 3.6192465740191082e+01 0 -3 0
1265 444 1 4.1499999999999998e-01 1.7397976313348604e+00 8.1064666140298380e-01 3.3167613602214651e+01 -1 1 0
1253 444 1 4.1499999999999998e-01 8.8035768608014653e+00 6.7027318379837544e+00 3.3993472089296596e+01 -1 1 0
2828 444 1 4.1499999999999998e-01 8.8631050437820402e-01 4.7688042722417467e+00 3.3415883075394063e+01 -1 0 0
1266 444 1 4.1499999999999998e-01 2.3600246537981623e-01 9.6709607251598484e-01 3.3245196676819880e+01 -1 1 0
2255 444 1 4.1499999999999998e-01 3.8982429155751226e+00 7.5030425806117957e+00 3.5659246315437990e+01 0 -3 0
5331 444 1 4.1499999999999998e-01 5.6289093697166948e-02 7.4894952726347110e+00 3.2982398447649636e+01 0 3 0
1753 444 2 -8.2999999999999996e-01 1.1263470226623848e+01 4.7016147530415795e+00 3.3226427935971081e+01 1 5 0
3290 444 1 4.1499999999999998e-01 3.6921637276741897e+00 2.4962725419665088e+00 3.2792835654488783e+01 -2 1 0
3694 444 2 -8.2999999999999996e-01 5.6774581454530475e+00 3.7644610266855044e-01 3.3867598595173519e+01 -3 3 0
2254 444 2 -8.2999999999999996e-01 3.1183550417487509e+00 7.1185995633694761e+00 3.6059509852897790e+01 0 -3 0
5181 444 1 4.1499999999999998e-01 5.0407249419427975e+00 4.1003040500827836e+00 3.2762487450017915e+01 -1 -4 0
3291 444 1 4.1499999999999998e-01 4.3475670024945261e+00 1.1423020967260233e+00 3.2963439645879660e+01 -2 1 0