LAMMPS data file via write_data, version 11 Aug 2017, timestep = 500000

7164 atoms
4 atom types
4000 bonds
1 bond types
2000 angles
1 angle types

0.0000000000000000e+00 4.5679949999999998e+01 xlo xhi
0.0000000000000000e+00 4.6885919999999999e+01 ylo yhi
0.0000000000000000e+00 6.5000000000000000e+01 zlo zhi

Masses

1 1.0079
2 15.9994
3 18.9984
4 107.868

Bond Coeffs # harmonic

1 450 0.9572

Angle Coeffs # harmonic

1 55 104.52

Atoms # full

6013 444 4 0.0000000000000000e+00 1.6907200000000000e+00 0.0000000000000000e+00 0.0000000000000000e+00 0 0 0
6014 444 4 0.0000000000000000e+00 4.2285000000000004e+00 1.4651900000000000e+00 0.0000000000000000e+00 0 0 0
6015 444 4 4.1669999999999999e-02 1.6907700000000001e+00 0.0000000000000000e+00 7.1781499999999996e+00 0 0 0
6016 444 4 4.1669999999999999e-02 4.2285500000000003e+00 1.4651900000000000e+00 7.1781499999999996e+00 0 0 0
6017 444 4 0.0000000000000000e+00 2.5366499999999998e+00 1.4651900000000000e+00 2.3926400000000001e+00 0 0 0
6018 444 4 0.0000000000000000e+00 5.0744199999999999e+00 0.0000000000000000e+00 2.3926400000000001e+00 0 0 0
6019 444 4 0.0000000000000000e+00 8.4509000000000001e-01 1.4651900000000000e+00 4.7824200000000001e+00 0 0 0
6020 444 4 0.0000000000000000e+00 3.3828600000000000e+00 0.0000000000000000e+00 4.7824499999999999e+00 0 0 0
6021 444 4 0.0000000000000000e+00 1.6907200000000000e+00 2.9303699999999999e+00 0.0000000000000000e+00 0 0 0
6022 444 4 0.0000000000000000e+00 4.2285000000000004e+00 4.3955599999999997e+00 0.0000000000000000e+00 0 0 0
6023 444 4 4.1669999999999999e-02 1.6907700000000001e+00 2.9303699999999999e+00 7.1781899999999998e+00 0 0 0
6024 444 4 4.1669999999999999e-02 4.2285500000000003e+00 4.3955599999999997e+00 7.1781600000000001e+00 0 0 0
6025 444 4 0.0000000000000000e+00 2.5366499999999998e+00 4.3955599999999997e+00 2.3926400000000001e+00 0 0 0
6026 444 4 0.0000000000000000e+00 5.0744199999999999e+00 2.9303699999999999e+00 2.3926400000000001e+00 0 0 0
6027 444 4 0.0000000000000000e+00 8.4509000000000001e-01 4.3955599999999997e+00 4.7824499999999999e+00 0 0 0
6028 444 4 0.0000000000000000e+00 3.3828700000000000e+00 2.9303699999999999e+00 4.7824400000000002e+00 0 0 0
6029 444 4 0.0000000000000000e+00 1.6907200000000000e+00 5.8607399999999998e+00 0.0000000000000000e+00 0 0 0
6030 444 4 0.0000000000000000e+00 4.2285000000000004e+00 7.3259299999999996e+00 0.0000000000000000e+00 0 0 0
6031 444 4 4.1669999999999999e-02 1.6907700000000001e+00 5.8607399999999998e+00 7.1781499999999996e+00 0 0 0
6032 444 4 4.1669999999999999e-02 4.2285500000000003e+00 7.3259299999999996e+00 7.1781499999999996e+00 0 0 0
6033 444 4 0.0000000000000000e+00 2.5366499999999998e+00 7.3259299999999996e+00 2.3926400000000001e+00 0 0 0
6034 444 4 0.0000000000000000e+00 5.0744199999999999e+00 5.8607399999999998e+00 2.3926400000000001e+00 0 0 0
6035 444 4 0.0000000000000000e+00 8.4509000000000001e-01 7.3259299999999996e+00 4.7824200000000001e+00 0 0 0
6036 444 4 0.0000000000000000e+00 3.3828600000000000e+00 5.8607399999999998e+00 4.7824499999999999e+00 0 0 0
6141 444 4 0.0000000000000000e+00 6.7662699999999996e+00 0.0000000000000000e+00 0.0000000000000000e+00 0 0 0
6143 444 4 4.1669999999999999e-02 6.7663200000000003e+00 0.0000000000000000e+00 7.1781499999999996e+00 0 0 0
6145 444 4 0.0000000000000000e+00 7.6121999999999996e+00 1.4651900000000000e+00 2.3926400000000001e+00 0 0 0
6147 444 4 0.0000000000000000e+00 5.9206399999999997e+00 1.4651900000000000e+00 4.7824200000000001e+00 0 0 0
6149 444 4 0.0000000000000000e+00 6.7662699999999996e+00 2.9303699999999999e+00 0.0000000000000000e+00 0 0 0
6151 444 4 4.1669999999999999e-02 6.7663200000000003e+00 2.9303699999999999e+00 7.1781899999999998e+00 0 0 0
6153 444 4 0.0000000000000000e+00 7.6121999999999996e+00 4.3955599999999997e+00 2.3926400000000001e+00 0 0 0
6155 444 4 0.0000000000000000e+00 5.9206399999999997e+00 4.3955599999999997e+00 4.7824499999999999e+00 0 0 0
6157 444 4 0.0000000000000000e+00 6.7662699999999996e+00 5.8607399999999998e+00 0.0000000000000000e+00 0 0 0
6159 444 4 4.1669999999999999e-02 6.7663200000000003e+00 5.8607399999999998e+00 7.1781499999999996e+00 0 0 0
6161 444 4 0.0000000000000000e+00 7.6121999999999996e+00 7.3259299999999996e+00 2.3926400000000001e+00 0 0 0
6163 444 4 0.0000000000000000e+00 5.9206399999999997e+00 7.3259299999999996e+00 4.7824200000000001e+00 0 0 0
6142 444 4 0.0000000000000000e+00 9.3040500000000002e+00 1.4651900000000000e+00 0.0000000000000000e+00 0 0 0
6144 444 4 4.1669999999999999e-02 9.3041000000000000e+00 1.4651900000000000e+00 7.1781499999999996e+00 0 0 0
6146 444 4 0.0000000000000000e+00 1.0149970000000000e+01 0.0000000000000000e+00 2.3926400000000001e+00 0 0 0
6148 444 4 0.0000000000000000e+00 8.4584100000000007e+00 0.0000000000000000e+00 4.7824499999999999e+00 0 0 0
6150 444 4 0.0000000000000000e+00 9.3040500000000002e+00 4.3955599999999997e+00 0.0000000000000000e+00 0 0 0
6152 444 4 4.1669999999999999e-02 9.3041000000000000e+00 4.3955599999999997e+00 7.1781600000000001e+00 0 0 0
6154 444 4 0.0000000000000000e+00 1.0149970000000000e+01 2.9303699999999999e+00 2.3926400000000001e+00 0 0 0
6156 444 4 0.0000000000000000e+00 8.4584200000000003e+00 2.9303699999999999e+00 4.7824400000000002e+00 0 0 0
6158 444 4 0.0000000000000000e+00 9.3040500000000002e+00 7.3259299999999996e+00 0.0000000000000000e+00 0 0 0
6160 444 4 4.1669999999999999e-02 9.3041000000000000e+00 7.3259299999999996e+00 7.1781499999999996e+00 0 0 0
6162 444 4 0.0000000000000000e+00 1.0149970000000000e+01 5.8607399999999998e+00 2.3926400000000001e+00 0 0 0
6164 444 4 0.0000000000000000e+00 8.4584100000000007e+00 5.8607399999999998e+00 4.7824499999999999e+00 0 0 0
6275 444 4 0.0000000000000000e+00 1.0996190000000000e+01 1.4651900000000000e+00 4.7824200000000001e+00 0 0 0
6283 444 4 0.0000000000000000e+00 1.0996190000000000e+01 4.3955599999999997e+00 4.7824499999999999e+00 0 0 0
6291 444 4 0.0000000000000000e+00 1.0996190000000000e+01 7.3259299999999996e+00 4.7824200000000001e+00 0 0 0
2200 444 2 -8.2999999999999996e-01 5.3638797259014535e+00 5.8557708421948440e-01 1.0095427196229355e+01 1 0 0
2202 444 1 4.1499999999999998e-01 6.2516815849794334e+00 9.4338081052372658e-01 1.0099447362716184e+01 1 0 0
2422 444 2 -8.2999999999999996e-01 3.8426726342706923e+00 2.1311313830576402e+00 1.1638526130758974e+01 2 -1 0
2424 444 1 4.1499999999999998e-01 4.0275318196698420e+00 3.0173807912474513e+00 1.1327687052424290e+01 2 -1 0
2201 444 1 4.1499999999999998e-01 4.8934056698197823e+00 1.1035886324265778e+00 1.0748535172108374e+01 1 0 0
2423 444 1 4.1499999999999998e-01 3.1061000383838611e+00 1.8375151135545373e+00 1.1102352520714534e+01 2 -1 0
1252 444 2 -8.2999999999999996e-01 4.5735772358796458e+00 4.4225721423573976e+00 1.0530609495767196e+01 1 2 0
1254 444 1 4.1499999999999998e-01 5.4895982290044456e+00 4.1502191682072143e+00 1.0476192889664786e+01 1 2 0
4837 444 2 -8.2999999999999996e-01 9.3380546031242542e+00 2.8927406729338347e+00 1.2000503147710763e+01 -3 -6 0
4839 444 1 4.1499999999999998e-01 9.6430677055658727e+00 2.8537213154617103e+00 1.2906966826323178e+01 -3 -6 0
4606 444 2 -8.2999999999999996e-01 1.1001263711763061e+01 4.4995114899513773e+00 9.9863435554902065e+00 -3 1 0
1592 444 1 4.1499999999999998e-01 2.5711889727407393e+00 4.8348345401957156e+00 1.0617169499174059e+01 1 -2 0
1999 444 2 -8.2999999999999996e-01 8.0029017422760198e+00 1.1695542299631232e+00 1.0420454288032678e+01 -1 -2 0
3090 444 1 4.1499999999999998e-01 4.7822813331843898e-02 2.2894666885544130e+00 9.8958179581095216e+00 1 2 0
1526 444 1 4.1499999999999998e-01 7.0722945737809662e+00 1.1936210509309855e+00 1.3481719941174886e+01 -1 3 0
352 444 2 -8.2999999999999996e-01 5.9386357468707662e-01 5.6550919183831905e+00 1.5989522789755373e+01 0 0 0
705 444 1 4.1499999999999998e-01 1.0218502347047970e+01 3.9168835792859626e+00 1.4562003073528011e+01 2 2 0
3120 444 1 4.1499999999999998e-01 3.6768879022214040e+00 3.5539842271444040e+00 1.5713952517159573e+01 0 2 0
2001 444 1 4.1499999999999998e-01 8.7379726454309310e+00 6.2293840200058992e-01 1.0142761166346691e+01 -1 -2 0
1527 444 1 4.1499999999999998e-01 7.6764524515761074e+00 2.4924937095154869e+00 1.2992008146666947e+01 -1 3 0
2000 444 1 4.1499999999999998e-01 8.4005769673315172e+00 1.8462554240353979e+00 1.0968324438019369e+01 -1 -2 0
1525 444 2 -8.2999999999999996e-01 7.2557454936649615e+00 2.0929576421554308e+00 1.3753328275795042e+01 -1 3 0
810 444 1 4.1499999999999998e-01 1.9340123807994887e+00 3.8458490861442987e+00 1.4004889715667080e+01 0 0 0
1595 444 1 4.1499999999999998e-01 5.3901429171225077e+00 1.9424116548401943e-01 1.6159284715410884e+01 -1 3 0
808 444 2 -8.2999999999999996e-01 2.3608423897282704e+00 4.3657429251778401e+00 1.4685887769167858e+01 0 0 0
4838 444 1 4.1499999999999998e-01 1.0034531040950277e+01 2.4740281469868126e+00 1.1494704740936143e+01 -3 -6 0
809 444 1 4.1499999999999998e-01 1.6637019245252722e+00 4.9195298443311959e+00 1.5037380390606241e+01 0 0 0
4994 444 1 4.1499999999999998e-01 4.2546984473049232e+00 1.4299149126257813e+00 1.4546206324130971e+01 -3 2 0
5896 444 2 -8.2999999999999996e-01 4.0335701467099181e+00 7.2190220180149067e+00 1.0558359013810428e+01 1 -4 0
1591 444 2 -8.2999999999999996e-01 1.6388703677990846e+00 4.7663496011443476e+00 1.0411441643184588e+01 1 -2 0
4607 444 1 4.1499999999999998e-01 1.0161645881613268e+01 4.7228932185001486e+00 1.0388058838004701e+01 -3 1 0
886 444 2 -8.2999999999999996e-01 2.7892271323802609e+00 6.6845323562838468e+00 1.3389914027712829e+01 1 -1 0
888 444 1 4.1499999999999998e-01 3.0627468566200418e+00 7.4242583301503808e+00 1.3932339402043040e+01 1 -1 0
887 444 1 4.1499999999999998e-01 2.9135042534417330e+00 5.9178274998603246e+00 1.3949334198872744e+01 1 -1 0
3088 444 2 -8.2999999999999996e-01 9.6162710203451662e-01 2.3572973671544797e+00 1.0172571491224843e+01 1 2 0
704 444 1 4.1499999999999998e-01 9.9199345441050628e+00 2.4966118578383685e+00 1.4992794446619328e+01 2 2 0
4966 444 2 -8.2999999999999996e-01 7.2081634702805255e+00 4.2408320932227070e+00 1.0208227380924431e+01 4 1 0
4967 444 1 4.1499999999999998e-01 7.6669011445719049e+00 5.0124631421156653e+00 9.8759954294221171e+00 4 1 0
3089 444 1 4.1499999999999998e-01 1.1504039302002020e+00 3.2954107290315262e+00 1.0149365832895441e+01 1 2 0
4968 444 1 4.1499999999999998e-01 7.8652399633677597e+00 3.7752885078279652e+00 1.0725675145691760e+01 4 1 0
1593 444 1 4.1499999999999998e-01 1.3350596976713607e+00 5.6731006525224865e+00 1.0369804123624728e+01 1 -2 0
4133 444 1 4.1499999999999998e-01 9.7558038141660148e+00 6.6409051207626035e+00 1.2991546040448112e+01 1 -1 0
3288 444 1 4.1499999999999998e-01 8.9058525908572306e-01 6.4750270210557019e+00 1.2930591566976418e+01 0 2 0
1253 444 1 4.1499999999999998e-01 4.6121371878759900e+00 5.3708971108322112e+00 1.0654805406272606e+01 1 2 0
353 444 1 4.1499999999999998e-01 8.0881325476955601e-01 6.5877332611484665e+00 1.6003966373289103e+01 0 0 0
3118 444 2 -8.2999999999999996e-01 4.1060707499624494e+00 2.7143877578286277e+00 1.5878606758910335e+01 0 2 0
2552 444 1 4.1499999999999998e-01 8.1821722000246400e+00 6.6408911483456583e+00 1.0907635274214162e+01 2 2 0
3286 444 2 -8.2999999999999996e-01 1.7475721352354914e-01 6.6815637086281638e+00 1.2329621312243363e+01 0 2 0
2553 444 1 4.1499999999999998e-01 9.6055878332822928e+00 6.8557004453276686e+00 1.0438978497854318e+01 2 2 0
703 444 2 -8.2999999999999996e-01 1.0280815391326152e+01 3.0079164520401007e+00 1.4268526080512752e+01 2 2 0
2551 444 2 -8.2999999999999996e-01 8.9450793817777932e+00 6.1746286535782673e+00 1.0565870496035039e+01 2 2 0
3609 444 1 4.1499999999999998e-01 7.0791949622970152e-01 7.7228813243856633e+00 1.0928250069618887e+01 3 -3 0
1961 444 1 4.1499999999999998e-01 7.0747403925493719e+00 2.4534230702819686e+00 1.5426159409741144e+01 2 -4 0
4993 444 2 -8.2999999999999996e-01 4.1380770511745357e+00 7.3784637060463942e-01 1.3895305104053566e+01 -3 2 0
3702 444 1 4.1499999999999998e-01 1.0666679640127713e+01 5.4847579408579505e-01 1.0043554707379998e+01 5 7 0
4995 444 1 4.1499999999999998e-01 3.7852807802047748e+00 1.1875230121472475e+00 1.3127478589827358e+01 -3 2 0
486 444 1 4.1499999999999998e-01 6.0314433894953723e+00 7.4772702287362032e+00 1.1419255493074878e+01 -1 0 0
2819 444 1 4.1499999999999998e-01 1.4001380752711752e+00 7.6559789905783815e-01 1.0450681358984369e+01 0 0 0
4459 444 2 -8.2999999999999996e-01 9.8049753276256641e+00 7.5979675553859440e+00 1.5969388081850536e+01 0 2 0
5690 444 1 4.1499999999999998e-01 1.0479502585283020e+01 6.1986549558883084e+00 1.5327060342698854e+01 -2 -2 0
5689 444 2 -8.2999999999999996e-01 1.0946656078235952e+01 5.3676302960618960e+00 1.5413068431761381e+01 -2 -2 0
5897 444 1 4.1499999999999998e-01 3.2045888701150904e+00 7.3002815015444966e+00 1.1029971716407555e+01 1 -4 0
4132 444 2 -8.2999999999999996e-01 1.0453135529652997e+01 7.2964255766709405e+00 1.2975634147288305e+01 1 -1 0
5034 444 1 4.1499999999999998e-01 1.1294706231104234e+01 2.7587636324240017e+00 1.0050373351848728e+01 -3 2 0
5190 444 1 4.1499999999999998e-01 8.2697928280387778e+00 8.0863820147953902e-03 1.5046997962646858e+01 0 -3 0
1969 444 2 -8.2999999999999996e-01 1.7592652505207537e-01 1.7277342553358055e-01 2.3259402755490655e+01 2 1 0
1220 444 1 4.1499999999999998e-01 9.3714577240941530e+00 7.6009599763483504e-01 1.6777662664804350e+01 0 -1 0
181 444 2 -8.2999999999999996e-01 1.1388855757632372e+01 1.6756138088365191e+00 2.1320006844968237e+01 2 -1 0
182 444 1 4.1499999999999998e-01 1.0917382341588759e+01 1.9552563980292312e+00 2.0535312514705463e+01 2 -1 0
3860 444 1 4.1499999999999998e-01 3.2277248249805701e-01 5.4889513398934808e-01 1.9581034566579248e+01 0 2 0
4943 444 1 4.1499999999999998e-01 7.5793806715364438e+00 5.8158845553710750e+00 1.7431605131799849e+01 -4 -5 0
4034 444 1 4.1499999999999998e-01 3.6578482293649262e+00 7.2528771154489293e+00 1.9926068118127624e+01 2 6 0
2222 444 1 4.1499999999999998e-01 7.0462686463786799e+00 3.3820820995030485e+00 1.8191101906252204e+01 0 -1 0
4461 444 1 4.1499999999999998e-01 9.1163990335732255e+00 7.2712921285578069e+00 1.6548505847202922e+01 0 2 0
2221 444 2 -8.2999999999999996e-01 7.0563738572547283e+00 3.9178198214832940e+00 1.8984269438767402e+01 0 -1 0
1221 444 1 4.1499999999999998e-01 9.6479447960544693e+00 1.9205259665219585e+00 1.7709785250974239e+01 0 -1 0
2857 444 2 -8.2999999999999996e-01 3.7533529870210289e+00 1.8814155862615745e-01 2.0886348848411139e+01 1 -2 0
4035 444 1 4.1499999999999998e-01 4.3348663852201756e+00 7.3439937941345859e+00 2.1277082266958022e+01 2 6 0
1960 444 2 -8.2999999999999996e-01 6.8360156735971955e+00 2.4557259717199051e+00 1.6353109812713342e+01 2 -4 0
1962 444 1 4.1499999999999998e-01 5.8857527965454333e+00 2.5707235543409408e+00 1.6355914314543956e+01 2 -4 0
1219 444 2 -8.2999999999999996e-01 1.0030226062512652e+01 1.4220675417470605e+00 1.6987544128804061e+01 0 -1 0
3342 444 1 4.1499999999999998e-01 1.2917576798468133e+00 4.3655313139098437e+00 1.7145253670665589e+01 -1 -3 0
577 444 2 -8.2999999999999996e-01 1.1929543005672305e+00 1.7380480508982492e+00 2.0577581904957484e+01 0 0 0
1176 444 1 4.1499999999999998e-01 1.0902203025976590e+01 5.1029064030420166e+00 2.1260298806350946e+01 2 0 0
4001 444 1 4.1499999999999998e-01 7.8983968307630157e+00 6.7543287710943050e+00 2.1877286321895319e+01 -6 3 0
578 444 1 4.1499999999999998e-01 1.4653941824920305e+00 2.6522638525588174e+00 2.0656436939276212e+01 0 0 0
3628 444 2 -8.2999999999999996e-01 1.1091592878144008e+01 4.6501140273152810e+00 2.2910979731323668e+01 -1 5 0
3522 444 1 4.1499999999999998e-01 9.7657252110996773e-01 7.5287531578187608e+00 1.9177360951743882e+01 3 1 0
2223 444 1 4.1499999999999998e-01 6.1817353230071346e+00 4.3047096818218860e+00 1.9023709606962921e+01 0 -1 0
1940 444 1 4.1499999999999998e-01 1.7290441407003476e+00 5.2353956998738447e+00 2.1795794851172779e+01 1 0 0
3615 444 1 4.1499999999999998e-01 4.4510286147490632e+00 5.8591180375341549e+00 1.9301575814070119e+01 1 1 0
2660 444 1 4.1499999999999998e-01 2.9093802246280678e+00 6.6754402745937549e+00 2.2942960976094035e+01 3 1 0
3119 444 1 4.1499999999999998e-01 3.6539872964572515e+00 2.3598323462783299e+00 1.6644206211986127e+01 0 2 0
846 444 1 4.1499999999999998e-01 2.0773124553054569e+00 1.8191364538574875e+00 1.8021009020081255e+01 3 3 0
5744 444 1 4.1499999999999998e-01 8.8942522599302656e+00 3.5622810073184414e+00 1.9167781212551002e+01 5 5 0
5745 444 1 4.1499999999999998e-01 1.0214128235926390e+01 3.9612464299605321e+00 1.9792800406241351e+01 5 5 0
5743 444 2 -8.2999999999999996e-01 9.6506355285151546e+00 3.2042740216421000e+00 1.9632483431172595e+01 5 5 0
216 444 1 4.1499999999999998e-01 5.9996489589694209e+00 1.9738464225551613e+00 2.1547561724745648e+01 -2 0 0
214 444 2 -8.2999999999999996e-01 5.1813722804074773e+00 2.3595193999990727e+00 2.1860469609526472e+01 -2 0 0
3614 444 1 4.1499999999999998e-01 3.8826909193226276e+00 5.0318272187815882e+00 1.8168228022484072e+01 1 1 0
3057 444 1 4.1499999999999998e-01 5.4245925906759389e+00 1.7180791889737137e+00 2.3533077336730262e+01 0 3 0
4303 444 2 -8.2999999999999996e-01 5.1928524286460274e+00 4.4182083209680574e+00 2.3581698414548988e+01 -2 0 0
4304 444 1 4.1499999999999998e-01 6.1344249095574872e+00 4.3897393278609620e+00 2.3411807048294673e+01 -2 0 0
3678 444 1 4.1499999999999998e-01 8.3903285767121840e+00 2.3798720096032522e+00 2.0752100391980981e+01 4 -2 0
1174 444 2 -8.2999999999999996e-01 1.1108507953411108e+01 5.5590426728268092e+00 2.0444449764866690e+01 2 0 0
3676 444 2 -8.2999999999999996e-01 7.6727735047286378e+00 1.8607480630064344e+00 2.1115222122713092e+01 4 -2 0
215 444 1 4.1499999999999998e-01 4.5304260034861645e+00 1.6671911319835293e+00 2.1745656294717520e+01 -2 0 0
844 444 2 -8.2999999999999996e-01 2.6756706874972567e+00 1.1049497201152660e+00 1.7801608199477819e+01 3 3 0
845 444 1 4.1499999999999998e-01 2.9606485688437219e+00 7.6187737537358258e-01 1.8648556166924831e+01 3 3 0
4895 444 1 4.1499999999999998e-01 6.7729906032861917e+00 5.7198865558655445e+00 2.1126453241559418e+01 1 2 0
4894 444 2 -8.2999999999999996e-01 7.3436996734554718e+00 5.0694211745896123e+00 2.1535620195686356e+01 1 2 0
1939 444 2 -8.2999999999999996e-01 1.3001990019157257e+00 5.7181740777541492e+00 2.2502370104232742e+01 1 0 0
3340 444 2 -8.2999999999999996e-01 1.3033532829172918e+00 3.9154601794728721e+00 1.7989962673029762e+01 -1 -3 0
5300 444 1 4.1499999999999998e-01 1.0464473098741154e+01 7.4252840388877175e+00 1.8330240516231928e+01 1 1 0
4942 444 2 -8.2999999999999996e-01 8.0561644902036953e+00 6.6457015512998270e+00 1.7413921620199368e+01 -4 -5 0
3613 444 2 -8.2999999999999996e-01 4.5141292656730343e+00 4.9987372491986601e+00 1.8886853408830341e+01 1 1 0
1762 444 2 -8.2999999999999996e-01 2.2762250099305392e+00 4.4720017868081046e+00 2.0491087686594707e+01 7 2 0
4305 444 1 4.1499999999999998e-01 4.8048019675776272e+00 3.9119535755282606e+00 2.2868006742275494e+01 -2 0 0
1763 444 1 4.1499999999999998e-01 2.0425213509731561e+00 4.7314751144464839e+00 1.9599858897830345e+01 7 2 0
2659 444 2 -8.2999999999999996e-01 3.4431236791212170e+00 7.4676910569012733e+00 2.3003698184231620e+01 3 1 0
1764 444 1 4.1499999999999998e-01 3.2031792482490631e+00 4.2392570093270496e+00 2.0438005427435908e+01 7 2 0
4896 444 1 4.1499999999999998e-01 7.2393146926473300e+00 4.2854809195192489e+00 2.0996386218223911e+01 1 2 0
4000 444 2 -8.2999999999999996e-01 8.1183624743539475e+00 7.6844046818110678e+00 2.1930255563351984e+01 -6 3 0
3677 444 1 4.1499999999999998e-01 7.7651283383250504e+00 1.0019848958521218e+00 2.0702634064300696e+01 4 -2 0
3519 444 1 4.1499999999999998e-01 8.6263127299864717e+00 9.3372682763599046e-01 2.3710721044436056e+01 -3 -2 0
1941 444 1 4.1499999999999998e-01 8.1894326735638301e-01 6.4163610128996105e+00 2.2058343733361809e+01 1 0 0
3518 444 1 4.1499999999999998e-01 8.5625812796067446e+00 2.3186460365033241e+00 2.4318859616879724e+01 -3 -2 0
3341 444 1 4.1499999999999998e-01 5.4069923799687858e-01 3.3375841027558102e+00 1.7964479130223506e+01 -1 -3 0
3069 444 1 4.1499999999999998e-01 6.2577445532874698e-01 5.1003601080799603e+00 2.4228858049725236e+01 -1 0 0
2969 444 1 4.1499999999999998e-01 8.1266427760529165e+00 4.3364879982093223e+00 2.3108628924224249e+01 -2 1 0
2968 444 2 -8.2999999999999996e-01 8.7272662900113342e+00 4.0237080275832895e+00 2.3785128633844948e+01 -2 1 0
3517 444 2 -8.2999999999999996e-01 8.1329266943780709e+00 1.4634838397537870e+00 2.4336947814411527e+01 -3 -2 0
579 444 1 4.1499999999999998e-01 1.0673197852004535e+00 1.4463322626623196e+00 2.1480549190435269e+01 0 0 0
183 444 1 4.1499999999999998e-01 1.0768584217780939e+01 1.1145093805945758e+00 2.1785472096770135e+01 2 -1 0
5301 444 1 4.1499999999999998e-01 1.0531315325237841e+01 7.4392653502703467e+00 1.9842600051974898e+01 1 1 0
2970 444 1 4.1499999999999998e-01 9.5954897103670067e+00 4.2749448709101276e+00 2.3470009698037604e+01 -2 1 0
4033 444 2 -8.2999999999999996e-01 4.4409914787726441e+00 6.9741192228097608e+00 2.0400633740910877e+01 2 6 0
2661 444 1 4.1499999999999998e-01 3.8296255330844375e+00 7.4301826963177326e+00 2.3878593266027465e+01 3 1 0
4944 444 1 4.1499999999999998e-01 7.6845674649790681e+00 7.1514366049162703e+00 1.8136680740599012e+01 -4 -5 0
3995 444 1 4.1499999999999998e-01 5.9124432895488024e+00 7.7834112161836719e+00 1.9790271469149932e+01 2 0 0
3520 444 2 -8.2999999999999996e-01 1.9065186416045139e+00 7.7455689195703767e+00 1.9110855215323184e+01 3 1 0
3067 444 2 -8.2999999999999996e-01 7.9973407846705008e-02 4.8278211058015605e+00 2.4966459793729499e+01 -1 0 0
3026 444 1 4.1499999999999998e-01 2.6195961842266122e+00 5.6257352348615619e+00 2.8268538900061902e+01 1 1 0
2956 444 2 -8.2999999999999996e-01 1.0281130864740922e+01 3.2965823767739098e+00 3.1902085199685519e+01 0 -3 0
5420 444 1 4.1499999999999998e-01 1.1036679873736231e+01 1.5202425135015394e+00 2.9751519592302405e+01 -2 0 0
3056 444 1 4.1499999999999998e-01 6.5031449836475774e+00 1.4186891622647673e+00 2.4552383687242624e+01 0 3 0
1943 444 1 4.1499999999999998e-01 2.2099219807979962e+00 7.1817432456211563e+00 2.6360669972952717e+01 1 2 0
890 444 1 4.1499999999999998e-01 3.0401150930732839e+00 5.0200845755743186e+00 3.0499327092943741e+01 0 1 0
3055 444 2 -8.2999999999999996e-01 5.5591373007023455e+00 1.3537428132510441e+00 2.4407942183302630e+01 0 3 0
1041 444 1 4.1499999999999998e-01 9.1571524926067802e+00 7.5124055069191167e+00 2.4685172249916693e+01 5 3 0
4405 444 2 -8.2999999999999996e-01 1.0142133374293110e+01 2.8740286620168667e+00 2.8963788459651450e+01 1 0 0
2958 444 1 4.1499999999999998e-01 1.1179186705622550e+01 3.3653206239271936e+00 3.2226128484350099e+01 0 -3 0
2890 444 2 -8.2999999999999996e-01 3.8491037903679541e+00 2.0826063569390030e+00 3.1648104700819086e+01 1 1 0
3923 444 1 4.1499999999999998e-01 7.2497283959576899e+00 7.5354428423693234e+00 3.1662199508417505e+01 2 -3 0
2328 444 1 4.1499999999999998e-01 2.2049198372752952e+00 1.8759762634909689e+00 3.1223682369083996e+01 2 -3 0
2326 444 2 -8.2999999999999996e-01 1.3076607855909503e+00 1.9357362191993686e+00 3.0895676827939138e+01 2 -3 0
2327 444 1 4.1499999999999998e-01 1.2743146472930504e+00 1.3095622456513234e+00 3.0172471396337798e+01 2 -3 0
3604 444 2 -8.2999999999999996e-01 1.4894388715537923e+00 5.7038069228159447e+00 3.0471858172305367e+01 0 1 0
3068 444 1 4.1499999999999998e-01 7.0424337584178931e-01 4.5914838056728424e+00 2.5652509355163815e+01 -1 0 0
3605 444 1 4.1499999999999998e-01 7.5453033696570759e-01 5.3063077821457254e+00 3.0938909032529160e+01 0 1 0
2029 444 2 -8.2999999999999996e-01 8.8799389294014777e+00 6.0913330211251875e+00 2.5885302455415413e+01 2 0 0
2031 444 1 4.1499999999999998e-01 8.0330848641591466e+00 5.9800372183375057e+00 2.6317371701011904e+01 2 0 0
3027 444 1 4.1499999999999998e-01 3.5005632701593026e+00 4.8182271975937141e+00 2.7339171976081168e+01 1 1 0
2030 444 1 4.1499999999999998e-01 9.0033593320971725e+00 5.2832043666118196e+00 2.5387379038057368e+01 2 0 0
2144 444 1 4.1499999999999998e-01 4.1511935838151706e+00 1.4487574617879311e+00 2.5624941292186616e+01 0 2 0
2145 444 1 4.1499999999999998e-01 3.9081935276918824e+00 1.1665142321929349e+00 2.7092314612479591e+01 0 2 0
2143 444 2 -8.2999999999999996e-01 3.4514208678248637e+00 1.3292390484658283e+00 2.6267020130261571e+01 0 2 0
5615 444 1 4.1499999999999998e-01 5.6408618765642062e+00 5.2232128063169565e+00 2.5167917877096148e+01 0 1 0
5614 444 2 -8.2999999999999996e-01 5.9379166609594911e+00 5.6791669012112971e+00 2.5955379568155127e+01 0 1 0
3025 444 2 -8.2999999999999996e-01 2.6091375563627741e+00 5.1531582023530538e+00 2.7436196705605859e+01 1 1 0
1160 444 1 4.1499999999999998e-01 7.9752736418617145e+00 2.8778478772939375e-01 2.7921620141228164e+01 2 -3 0
1159 444 2 -8.2999999999999996e-01 8.1090763142789157e+00 1.0544294080153995e+00 2.7364317007160153e+01 2 -3 0
3931 444 2 -8.2999999999999996e-01 8.2483211159547238e+00 6.2680665183633462e+00 2.9132661978269834e+01 0 -1 0
889 444 2 -8.2999999999999996e-01 3.8989923015452983e+00 4.6048111046870526e+00 3.0421162273633687e+01 0 1 0
3452 444 1 4.1499999999999998e-01 3.1830896560348881e-01 3.1050384493721235e+00 3.1568936088369394e+01 5 -2 0
891 444 1 4.1499999999999998e-01 3.7911594998646310e+00 3.7500930614107597e+00 3.0838368320472533e+01 0 1 0
5585 444 1 4.1499999999999998e-01 6.9346596134366010e+00 3.5624502596569614e+00 3.1450799518097494e+01 -6 1 0
3932 444 1 4.1499999999999998e-01 8.4263192289365811e+00 6.7555386586469641e+00 2.8328349091322618e+01 0 -1 0
2985 444 1 4.1499999999999998e-01 1.0543807429497390e+01 7.6003907155081940e+00 2.6621217862478805e+01 -1 -2 0
4933 444 2 -8.2999999999999996e-01 1.3246706914077977e+00 3.1462606704849629e+00 2.6521708646391776e+01 1 3 0
5616 444 1 4.1499999999999998e-01 5.6301466493892516e+00 5.1335429807713577e+00 2.6679122385558472e+01 0 1 0
3021 444 1 4.1499999999999998e-01 8.6563410495954578e+00 4.5849088885313156e+00 3.1652551131640397e+01 1 6 0
3019 444 2 -8.2999999999999996e-01 7.8170935820185798e+00 4.8864360010200709e+00 3.1304733759589485e+01 1 6 0
4144 444 2 -8.2999999999999996e-01 5.1612458631089364e+00 4.2806422743369108e+00 2.8145670742153680e+01 -3 3 0
2892 444 1 4.1499999999999998e-01 4.8014612191983446e+00 2.0565999054848318e+00 3.1555527030765838e+01 1 1 0
3020 444 1 4.1499999999999998e-01 7.9933480160145409e+00 5.0757884016286416e+00 3.0383152657843727e+01 1 6 0
5586 444 1 4.1499999999999998e-01 7.2469332126890693e+00 2.2397214575166293e+00 3.2117709095462949e+01 -6 1 0
540 444 1 4.1499999999999998e-01 6.2977783136713370e+00 1.6202662805196995e+00 2.7674168205697097e+01 0 3 0
538 444 2 -8.2999999999999996e-01 5.5011704106830761e+00 1.6958261751955630e+00 2.8199466299387808e+01 0 3 0
539 444 1 4.1499999999999998e-01 5.8053061967669999e+00 1.6433148020839610e+00 2.9105543413783217e+01 0 3 0
4145 444 1 4.1499999999999998e-01 4.7754855204278970e+00 4.3266710928697485e+00 2.9020486206699449e+01 -3 3 0
4935 444 1 4.1499999999999998e-01 1.6646018457822547e+00 3.8685517200041852e+00 2.7049888273476952e+01 1 3 0
4146 444 1 4.1499999999999998e-01 5.3856701946428434e+00 3.3572621314545366e+00 2.8030629870368131e+01 -3 3 0
5584 444 2 -8.2999999999999996e-01 6.6114622616677883e+00 2.6661715560009278e+00 3.1542775385492604e+01 -6 1 0
3933 444 1 4.1499999999999998e-01 7.4489040334492991e+00 6.6630444334026535e+00 2.9480737346133466e+01 0 -1 0
3357 444 1 4.1499999999999998e-01 2.0476871033259791e+00 3.0704210659944386e-01 2.5966254114706018e+01 3 -3 0
2957 444 1 4.1499999999999998e-01 1.0376363414455049e+01 3.0610314256708544e+00 3.0979220743461962e+01 0 -3 0
1161 444 1 4.1499999999999998e-01 8.1371468224815189e+00 7.0242337560539136e-01 2.6474634115572940e+01 2 -3 0
4934 444 1 4.1499999999999998e-01 2.0936504885284828e+00 2.6124242948693737e+00 2.6321907400900542e+01 1 3 0
4407 444 1 4.1499999999999998e-01 9.7003682123508881e+00 2.2248342839212980e+00 2.8416410882353240e+01 1 0 0
3606 444 1 4.1499999999999998e-01 1.7212624825351062e+00 6.4699106831419524e+00 3.0996810791002758e+01 0 1 0
3402 444 1 4.1499999999999998e-01 4.9644310115966981e+00 7.2948852321889293e+00 2.8944519973721672e+01 0 2 0
3339 444 1 4.1499999999999998e-01 6.3938597196743245e+00 7.3951180141566759e+00 2.5836275408872044e+01 1 1 0
4406 444 1 4.1499999999999998e-01 1.0518977234127282e+01 3.4961192929799183e+00 2.8341514381285403e+01 1 0 0
5419 444 2 -8.2999999999999996e-01 1.1366150534597459e+01 6.8082146400880772e-01 3.0072539695491599e+01 -2 0 0
2179 444 2 -8.2999999999999996e-01 1.1010262564722998e+01 6.7165410754765364e+00 3.4093577616687256e+01 0 -1 0
2891 444 1 4.1499999999999998e-01 3.6850981734777886e+00 1.7579322657962240e+00 3.2533497440189883e+01 1 1 0
1697 444 1 4.1499999999999998e-01 6.0283627573125931e-01 6.7327345854487168e+00 3.4967639603987848e+01 2 2 0
5708 444 1 4.1499999999999998e-01 4.8601714358182297e+00 3.2313765309879590e+00 3.6585932402642946e+01 1 3 0
5120 444 1 4.1499999999999998e-01 8.8316970310842464e+00 6.6178019843892089e-01 3.3185087717820537e+01 3 2 0
2413 444 2 -8.2999999999999996e-01 2.0400187091060453e+00 7.4046792006410413e+00 3.2779639555167059e+01 -5 4 0
5208 444 1 4.1499999999999998e-01 7.6279477381804623e+00 3.5205021966311580e+00 3.5462924927690196e+01 3 1 0
5121 444 1 4.1499999999999998e-01 9.1997976767753880e+00 2.0647479177724199e+00 3.2751407018424217e+01 3 2 0
2415 444 1 4.1499999999999998e-01 2.8856159412668685e+00 7.7277274888539713e+00 3.3090824909758304e+01 -5 4 0
4821 444 1 4.1499999999999998e-01 7.0279817610974211e+00 5.8763552812493316e+00 3.4235421829465928e+01 0 4 0
4820 444 1 4.1499999999999998e-01 7.1046829993997020e+00 5.7733354658004696e+00 3.2726979186167966e+01 0 4 0
4819 444 2 -8.2999999999999996e-01 6.9242472603602421e+00 6.3913808680683362e+00 3.3435283943510385e+01 0 4 0
5206 444 2 -8.2999999999999996e-01 7.1580274402604980e+00 4.3172959812477014e+00 3.5216903607536253e+01 3 1 0