LAMMPS data file via write_data, version 11 Aug 2017, timestep = 5000000

7162 atoms
4 atom types
4000 bonds
1 bond types
2000 angles
1 angle types

0.0000000000000000e+00 4.5679949999999998e+01 xlo xhi
0.0000000000000000e+00 4.6885919999999999e+01 ylo yhi
0.0000000000000000e+00 6.5000000000000000e+01 zlo zhi

Masses

1 1.0079
2 15.9994
3 18.9984
4 107.868

Bond Coeffs # harmonic

1 450 0.9572

Angle Coeffs # harmonic

1 55 104.52

Atoms # full

6011 444 4 0.0000000000000000e+00 1.6907200000000000e+00 0.0000000000000000e+00 0.0000000000000000e+00 0 0 0
6012 444 4 0.0000000000000000e+00 4.2285000000000004e+00 1.4651900000000000e+00 0.0000000000000000e+00 0 0 0
6013 444 4 3.4720000000000001e-02 1.6907700000000001e+00 0.0000000000000000e+00 7.1781499999999996e+00 0 0 0
6014 444 4 3.4720000000000001e-02 4.2285500000000003e+00 1.4651900000000000e+00 7.1781499999999996e+00 0 0 0
6015 444 4 0.0000000000000000e+00 2.5366499999999998e+00 1.4651900000000000e+00 2.3926400000000001e+00 0 0 0
6016 444 4 0.0000000000000000e+00 5.0744199999999999e+00 0.0000000000000000e+00 2.3926400000000001e+00 0 0 0
6017 444 4 0.0000000000000000e+00 8.4509000000000001e-01 1.4651900000000000e+00 4.7824200000000001e+00 0 0 0
6018 444 4 0.0000000000000000e+00 3.3828600000000000e+00 0.0000000000000000e+00 4.7824499999999999e+00 0 0 0
6019 444 4 0.0000000000000000e+00 1.6907200000000000e+00 2.9303699999999999e+00 0.0000000000000000e+00 0 0 0
6020 444 4 0.0000000000000000e+00 4.2285000000000004e+00 4.3955599999999997e+00 0.0000000000000000e+00 0 0 0
6021 444 4 3.4720000000000001e-02 1.6907700000000001e+00 2.9303699999999999e+00 7.1781899999999998e+00 0 0 0
6022 444 4 3.4720000000000001e-02 4.2285500000000003e+00 4.3955599999999997e+00 7.1781600000000001e+00 0 0 0
6023 444 4 0.0000000000000000e+00 2.5366499999999998e+00 4.3955599999999997e+00 2.3926400000000001e+00 0 0 0
6024 444 4 0.0000000000000000e+00 5.0744199999999999e+00 2.9303699999999999e+00 2.3926400000000001e+00 0 0 0
6025 444 4 0.0000000000000000e+00 8.4509000000000001e-01 4.3955599999999997e+00 4.7824499999999999e+00 0 0 0
6026 444 4 0.0000000000000000e+00 3.3828700000000000e+00 2.9303699999999999e+00 4.7824400000000002e+00 0 0 0
6027 444 4 0.0000000000000000e+00 1.6907200000000000e+00 5.8607399999999998e+00 0.0000000000000000e+00 0 0 0
6028 444 4 0.0000000000000000e+00 4.2285000000000004e+00 7.3259299999999996e+00 0.0000000000000000e+00 0 0 0
6029 444 4 3.4720000000000001e-02 1.6907700000000001e+00 5.8607399999999998e+00 7.1781499999999996e+00 0 0 0
6030 444 4 3.4720000000000001e-02 4.2285500000000003e+00 7.3259299999999996e+00 7.1781499999999996e+00 0 0 0
6031 444 4 0.0000000000000000e+00 2.5366499999999998e+00 7.3259299999999996e+00 2.3926400000000001e+00 0 0 0
6032 444 4 0.0000000000000000e+00 5.0744199999999999e+00 5.8607399999999998e+00 2.3926400000000001e+00 0 0 0
6033 444 4 0.0000000000000000e+00 8.4509000000000001e-01 7.3259299999999996e+00 4.7824200000000001e+00 0 0 0
6034 444 4 0.0000000000000000e+00 3.3828600000000000e+00 5.8607399999999998e+00 4.7824499999999999e+00 0 0 0
6139 444 4 0.0000000000000000e+00 6.7662699999999996e+00 0.0000000000000000e+00 0.0000000000000000e+00 0 0 0
6141 444 4 3.4720000000000001e-02 6.7663200000000003e+00 0.0000000000000000e+00 7.1781499999999996e+00 0 0 0
6143 444 4 0.0000000000000000e+00 7.6121999999999996e+00 1.4651900000000000e+00 2.3926400000000001e+00 0 0 0
6145 444 4 0.0000000000000000e+00 5.9206399999999997e+00 1.4651900000000000e+00 4.7824200000000001e+00 0 0 0
6147 444 4 0.0000000000000000e+00 6.7662699999999996e+00 2.9303699999999999e+00 0.0000000000000000e+00 0 0 0
6149 444 4 3.4720000000000001e-02 6.7663200000000003e+00 2.9303699999999999e+00 7.1781899999999998e+00 0 0 0
6151 444 4 0.0000000000000000e+00 7.6121999999999996e+00 4.3955599999999997e+00 2.3926400000000001e+00 0 0 0
6153 444 4 0.0000000000000000e+00 5.9206399999999997e+00 4.3955599999999997e+00 4.7824499999999999e+00 0 0 0
6155 444 4 0.0000000000000000e+00 6.7662699999999996e+00 5.8607399999999998e+00 0.0000000000000000e+00 0 0 0
6157 444 4 3.4720000000000001e-02 6.7663200000000003e+00 5.8607399999999998e+00 7.1781499999999996e+00 0 0 0
6159 444 4 0.0000000000000000e+00 7.6121999999999996e+00 7.3259299999999996e+00 2.3926400000000001e+00 0 0 0
6161 444 4 0.0000000000000000e+00 5.9206399999999997e+00 7.3259299999999996e+00 4.7824200000000001e+00 0 0 0
6035 444 4 0.0000000000000000e+00 1.6907200000000000e+00 8.7911099999999998e+00 0.0000000000000000e+00 0 0 0
6036 444 4 0.0000000000000000e+00 4.2285000000000004e+00 1.0256300000000000e+01 0.0000000000000000e+00 0 0 0
6037 444 4 3.4720000000000001e-02 1.6907700000000001e+00 8.7911099999999998e+00 7.1781899999999998e+00 0 0 0
6038 444 4 3.4720000000000001e-02 4.2285500000000003e+00 1.0256300000000000e+01 7.1781600000000001e+00 0 0 0
6039 444 4 0.0000000000000000e+00 2.5366499999999998e+00 1.0256300000000000e+01 2.3926400000000001e+00 0 0 0
6040 444 4 0.0000000000000000e+00 5.0744199999999999e+00 8.7911099999999998e+00 2.3926400000000001e+00 0 0 0
6041 444 4 0.0000000000000000e+00 8.4509000000000001e-01 1.0256300000000000e+01 4.7824499999999999e+00 0 0 0
6042 444 4 0.0000000000000000e+00 3.3828700000000000e+00 8.7911099999999998e+00 4.7824400000000002e+00 0 0 0
6163 444 4 0.0000000000000000e+00 6.7662699999999996e+00 8.7911099999999998e+00 0.0000000000000000e+00 0 0 0
6165 444 4 3.4720000000000001e-02 6.7663200000000003e+00 8.7911099999999998e+00 7.1781899999999998e+00 0 0 0
6167 444 4 0.0000000000000000e+00 7.6121999999999996e+00 1.0256300000000000e+01 2.3926400000000001e+00 0 0 0
6169 444 4 0.0000000000000000e+00 5.9206399999999997e+00 1.0256300000000000e+01 4.7824499999999999e+00 0 0 0
6140 444 4 0.0000000000000000e+00 9.3040500000000002e+00 1.4651900000000000e+00 0.0000000000000000e+00 0 0 0
6142 444 4 3.4720000000000001e-02 9.3041000000000000e+00 1.4651900000000000e+00 7.1781499999999996e+00 0 0 0
6144 444 4 0.0000000000000000e+00 1.0149970000000000e+01 0.0000000000000000e+00 2.3926400000000001e+00 0 0 0
6146 444 4 0.0000000000000000e+00 8.4584100000000007e+00 0.0000000000000000e+00 4.7824499999999999e+00 0 0 0
6148 444 4 0.0000000000000000e+00 9.3040500000000002e+00 4.3955599999999997e+00 0.0000000000000000e+00 0 0 0
6150 444 4 3.4720000000000001e-02 9.3041000000000000e+00 4.3955599999999997e+00 7.1781600000000001e+00 0 0 0
6152 444 4 0.0000000000000000e+00 1.0149970000000000e+01 2.9303699999999999e+00 2.3926400000000001e+00 0 0 0
6154 444 4 0.0000000000000000e+00 8.4584200000000003e+00 2.9303699999999999e+00 4.7824400000000002e+00 0 0 0
6156 444 4 0.0000000000000000e+00 9.3040500000000002e+00 7.3259299999999996e+00 0.0000000000000000e+00 0 0 0
6158 444 4 3.4720000000000001e-02 9.3041000000000000e+00 7.3259299999999996e+00 7.1781499999999996e+00 0 0 0
6160 444 4 0.0000000000000000e+00 1.0149970000000000e+01 5.8607399999999998e+00 2.3926400000000001e+00 0 0 0
6162 444 4 0.0000000000000000e+00 8.4584100000000007e+00 5.8607399999999998e+00 4.7824499999999999e+00 0 0 0
6273 444 4 0.0000000000000000e+00 1.0996190000000000e+01 1.4651900000000000e+00 4.7824200000000001e+00 0 0 0
6281 444 4 0.0000000000000000e+00 1.0996190000000000e+01 4.3955599999999997e+00 4.7824499999999999e+00 0 0 0
6289 444 4 0.0000000000000000e+00 1.0996190000000000e+01 7.3259299999999996e+00 4.7824200000000001e+00 0 0 0
6164 444 4 0.0000000000000000e+00 9.3040500000000002e+00 1.0256300000000000e+01 0.0000000000000000e+00 0 0 0
6166 444 4 3.4720000000000001e-02 9.3041000000000000e+00 1.0256300000000000e+01 7.1781600000000001e+00 0 0 0
6168 444 4 0.0000000000000000e+00 1.0149970000000000e+01 8.7911099999999998e+00 2.3926400000000001e+00 0 0 0
6170 444 4 0.0000000000000000e+00 8.4584200000000003e+00 8.7911099999999998e+00 4.7824400000000002e+00 0 0 0
6297 444 4 0.0000000000000000e+00 1.0996190000000000e+01 1.0256300000000000e+01 4.7824499999999999e+00 0 0 0
6267 444 4 0.0000000000000000e+00 1.1841820000000000e+01 0.0000000000000000e+00 0.0000000000000000e+00 0 0 0
6268 444 4 0.0000000000000000e+00 1.4379600000000000e+01 1.4651900000000000e+00 0.0000000000000000e+00 0 0 0
6269 444 4 3.4720000000000001e-02 1.1841870000000000e+01 0.0000000000000000e+00 7.1781499999999996e+00 0 0 0
6270 444 4 3.4720000000000001e-02 1.4379650000000000e+01 1.4651900000000000e+00 7.1781499999999996e+00 0 0 0
6271 444 4 0.0000000000000000e+00 1.2687749999999999e+01 1.4651900000000000e+00 2.3926400000000001e+00 0 0 0
6272 444 4 0.0000000000000000e+00 1.5225519999999999e+01 0.0000000000000000e+00 2.3926400000000001e+00 0 0 0
6274 444 4 0.0000000000000000e+00 1.3533960000000000e+01 0.0000000000000000e+00 4.7824499999999999e+00 0 0 0
6275 444 4 0.0000000000000000e+00 1.1841820000000000e+01 2.9303699999999999e+00 0.0000000000000000e+00 0 0 0
6276 444 4 0.0000000000000000e+00 1.4379600000000000e+01 4.3955599999999997e+00 0.0000000000000000e+00 0 0 0
6277 444 4 3.4720000000000001e-02 1.1841870000000000e+01 2.9303699999999999e+00 7.1781899999999998e+00 0 0 0
6278 444 4 3.4720000000000001e-02 1.4379650000000000e+01 4.3955599999999997e+00 7.1781600000000001e+00 0 0 0
6279 444 4 0.0000000000000000e+00 1.2687749999999999e+01 4.3955599999999997e+00 2.3926400000000001e+00 0 0 0
6280 444 4 0.0000000000000000e+00 1.5225519999999999e+01 2.9303699999999999e+00 2.3926400000000001e+00 0 0 0
6282 444 4 0.0000000000000000e+00 1.3533970000000000e+01 2.9303699999999999e+00 4.7824400000000002e+00 0 0 0
6283 444 4 0.0000000000000000e+00 1.1841820000000000e+01 5.8607399999999998e+00 0.0000000000000000e+00 0 0 0
6284 444 4 0.0000000000000000e+00 1.4379600000000000e+01 7.3259299999999996e+00 0.0000000000000000e+00 0 0 0
6285 444 4 3.4720000000000001e-02 1.1841870000000000e+01 5.8607399999999998e+00 7.1781499999999996e+00 0 0 0
6286 444 4 3.4720000000000001e-02 1.4379650000000000e+01 7.3259299999999996e+00 7.1781499999999996e+00 0 0 0
6287 444 4 0.0000000000000000e+00 1.2687749999999999e+01 7.3259299999999996e+00 2.3926400000000001e+00 0 0 0
6288 444 4 0.0000000000000000e+00 1.5225519999999999e+01 5.8607399999999998e+00 2.3926400000000001e+00 0 0 0
6290 444 4 0.0000000000000000e+00 1.3533960000000000e+01 5.8607399999999998e+00 4.7824499999999999e+00 0 0 0
6291 444 4 0.0000000000000000e+00 1.1841820000000000e+01 8.7911099999999998e+00 0.0000000000000000e+00 0 0 0
6292 444 4 0.0000000000000000e+00 1.4379600000000000e+01 1.0256300000000000e+01 0.0000000000000000e+00 0 0 0
6293 444 4 3.4720000000000001e-02 1.1841870000000000e+01 8.7911099999999998e+00 7.1781899999999998e+00 0 0 0
6294 444 4 3.4720000000000001e-02 1.4379650000000000e+01 1.0256300000000000e+01 7.1781600000000001e+00 0 0 0
6295 444 4 0.0000000000000000e+00 1.2687749999999999e+01 1.0256300000000000e+01 2.3926400000000001e+00 0 0 0
6296 444 4 0.0000000000000000e+00 1.5225519999999999e+01 8.7911099999999998e+00 2.3926400000000001e+00 0 0 0
6298 444 4 0.0000000000000000e+00 1.3533970000000000e+01 8.7911099999999998e+00 4.7824400000000002e+00 0 0 0
2165 444 1 4.1499999999999998e-01 7.1351308289124251e+00 6.9909360035728163e+00 1.0352861769010365e+01 1 -1 0
714 444 1 4.1499999999999998e-01 4.8279622861867164e+00 7.9720119466326453e+00 1.0437865966967230e+01 2 1 0
712 444 2 -8.2999999999999996e-01 5.7654623634228557e+00 7.9124501433739036e+00 1.0254077845919875e+01 2 1 0
713 444 1 4.1499999999999998e-01 6.1317993330479323e+00 8.7217244318763694e+00 1.0610596097971534e+01 2 1 0
3215 444 1 4.1499999999999998e-01 5.5078248394281593e+00 3.6264087190472436e+00 1.0212481591680268e+01 3 0 0
3216 444 1 4.1499999999999998e-01 4.6922591453359743e+00 3.4828864225943268e+00 1.1479820985025000e+01 3 0 0
3214 444 2 -8.2999999999999996e-01 4.6650864898159856e+00 3.3107255513822551e+00 1.0538622747346826e+01 3 0 0
4527 444 1 4.1499999999999998e-01 2.6831519185664776e+00 3.6362089649106721e+00 1.3450847476187308e+01 -1 0 0
4197 444 1 4.1499999999999998e-01 2.3789614627892730e+00 1.2645000139560754e+00 1.0574116379521286e+01 0 1 0
379 444 2 -8.2999999999999996e-01 3.6399245403443881e+00 1.0163747974678689e+01 1.0987595086969275e+01 -2 -2 0
593 444 1 4.1499999999999998e-01 5.2419010778109465e+00 6.2911377869066909e+00 1.2546262097412912e+01 -1 -3 0
1336 444 2 -8.2999999999999996e-01 4.8831217622003953e+00 7.7485244316801065e+00 1.3466489130862922e+01 6 -3 0
592 444 2 -8.2999999999999996e-01 5.3550428002360908e+00 5.4526225114921436e+00 1.2098687590099301e+01 -1 -3 0
700 444 2 -8.2999999999999996e-01 2.9418982344731388e+00 7.5198979386782803e+00 1.1388257675253255e+01 -2 0 0
701 444 1 4.1499999999999998e-01 3.2956073327511484e+00 7.4958689550857267e+00 1.2277383640445462e+01 -2 0 0
702 444 1 4.1499999999999998e-01 2.9371916054694318e+00 8.4486985273748072e+00 1.1156870696199936e+01 -2 0 0
4525 444 2 -8.2999999999999996e-01 2.5979015317901712e+00 4.5692927606883709e+00 1.3255091755946447e+01 -1 0 0
4196 444 1 4.1499999999999998e-01 3.1181596332222417e+00 2.5131841650981914e+00 1.0142527384017113e+01 0 1 0
4195 444 2 -8.2999999999999996e-01 2.2393238405999241e+00 2.1409793163241551e+00 1.0215623437709899e+01 0 1 0
4526 444 1 4.1499999999999998e-01 3.4227556374138288e+00 4.8013423016387771e+00 1.2828475897147397e+01 -1 0 0
969 444 1 4.1499999999999998e-01 8.5170186907060152e-01 5.7056140608431667e+00 1.2064077986832578e+01 1 -1 0
967 444 2 -8.2999999999999996e-01 7.9751653606052919e-01 6.0048394721827023e+00 1.1156465772302671e+01 1 -1 0
1013 444 1 4.1499999999999998e-01 2.8127424629035285e+00 1.4829709534547084e+00 1.4720927548937530e+01 -2 -2 0
968 444 1 4.1499999999999998e-01 1.6488388137433940e+00 6.4075672370907348e+00 1.0985314988013185e+01 1 -1 0
1902 444 1 4.1499999999999998e-01 1.6841583341518638e+00 9.9092132125765335e+00 1.0527659790325927e+01 0 -4 0
1012 444 2 -8.2999999999999996e-01 3.2518967657662579e+00 2.0864915774010138e+00 1.4121645265805048e+01 -2 -2 0
1014 444 1 4.1499999999999998e-01 3.5294620701454016e+00 1.5371837375445507e+00 1.3388535045024726e+01 -2 -2 0
1369 444 2 -8.2999999999999996e-01 6.8173008594284195e+00 5.3825938384592975e-01 1.0876679747362253e+01 0 3 0
1371 444 1 4.1499999999999998e-01 5.9535473179905551e+00 5.0282825381582352e-01 1.1287663070607717e+01 0 3 0
5535 444 1 4.1499999999999998e-01 6.9576388993602976e+00 5.1322061820737401e+00 1.3440384422122509e+01 -3 0 0
594 444 1 4.1499999999999998e-01 5.8378809089070529e+00 5.6695156194542085e+00 1.1301156047167893e+01 -1 -3 0
1901 444 1 4.1499999999999998e-01 4.6363240024789765e-01 1.0609998711703694e+01 9.9698864413540011e+00 0 -4 0
1337 444 1 4.1499999999999998e-01 4.5273807668680108e+00 7.6621391718759355e+00 1.4350919904138919e+01 6 -3 0
1338 444 1 4.1499999999999998e-01 5.2454681521395008e+00 8.6340643804303241e+00 1.3438994972579117e+01 6 -3 0
1370 444 1 4.1499999999999998e-01 7.1159859470252531e+00 1.4358399908068631e+00 1.1022859604065269e+01 0 3 0
352 444 2 -8.2999999999999996e-01 7.2952356624335755e+00 3.7858523471232868e+00 9.9842101051875378e+00 -4 -1 0
1718 444 1 4.1499999999999998e-01 1.2739248370133387e+00 5.3000824764416299e+00 1.3822152523073809e+01 1 -4 0
1719 444 1 4.1499999999999998e-01 7.2484290503674831e-01 6.5413996184841308e+00 1.4492626976381587e+01 1 -4 0
1292 444 1 4.1499999999999998e-01 8.0152745664729474e-01 3.3011566547648052e+00 1.0021564652140578e+01 0 2 0
3442 444 2 -8.2999999999999996e-01 6.7336158153171946e+00 9.6626173537263931e+00 1.4976009638754817e+01 1 -1 0
3443 444 1 4.1499999999999998e-01 7.1473930901568323e+00 1.0343695799831448e+01 1.4445771332301913e+01 1 -1 0
1900 444 2 -8.2999999999999996e-01 8.8035352228834740e-01 9.7505648026602962e+00 1.0032725213765175e+01 0 -4 0
380 444 1 4.1499999999999998e-01 3.3284678340006475e+00 1.1024711132372115e+01 1.0708365827247338e+01 -2 -2 0
3087 444 1 4.1499999999999998e-01 4.9136958423473827e+00 3.7233047942760868e+00 1.5428059235115981e+01 3 3 0
1717 444 2 -8.2999999999999996e-01 4.5646373686040242e-01 5.7053478139472391e+00 1.4111547133846789e+01 1 -4 0
3091 444 2 -8.2999999999999996e-01 6.9735133114815113e+00 5.0492801278353427e-01 1.5456397640886827e+01 0 0 0
3961 444 2 -8.2999999999999996e-01 4.4426861911336770e+00 2.3799742719856412e-01 1.2284928331466544e+01 1 4 0
381 444 1 4.1499999999999998e-01 4.5912539421592946e+00 1.0257202565269885e+01 1.1037298926032189e+01 -2 -2 0
2272 444 2 -8.2999999999999996e-01 6.3422844169718173e+00 1.0473354113811851e+01 1.1008244194942863e+01 4 -2 0
2274 444 1 4.1499999999999998e-01 6.7240933459803145e+00 1.0698880793777457e+01 1.1856531601412520e+01 4 -2 0
3444 444 1 4.1499999999999998e-01 6.1318323043575873e+00 1.0137318859178320e+01 1.5549374673187868e+01 1 -1 0
792 444 1 4.1499999999999998e-01 5.1436705834169139e-01 1.1406827441061780e+00 1.0238929253635817e+01 0 0 0
5856 444 1 4.1499999999999998e-01 4.3807411341064084e-01 4.2665980255861129e+00 1.4987634399293677e+01 -5 -2 0
1558 444 2 -8.2999999999999996e-01 1.3571068159806587e-01 1.0672388039139104e+01 1.6038047323866373e+01 4 0 0
3093 444 1 4.1499999999999998e-01 7.5317712930086751e+00 1.1914202466441295e+00 1.5091283553116126e+01 0 0 0
1597 444 2 -8.2999999999999996e-01 2.4368363189436608e+00 5.1127132044976453e-01 1.6105297157376715e+01 0 1 0
5361 444 1 4.1499999999999998e-01 3.1365124405915186e+00 6.3128476504780249e+00 1.5869089686166250e+01 4 -1 0
5359 444 2 -8.2999999999999996e-01 3.5580336487446682e+00 7.1325923481801832e+00 1.5611077312726071e+01 4 -1 0
5360 444 1 4.1499999999999998e-01 3.0315703275802393e+00 7.8147322241043540e+00 1.6027915868259171e+01 4 -1 0
3073 444 2 -8.2999999999999996e-01 4.4584623201962206e+00 1.0928219329330840e+01 1.6162213945958261e+01 -2 -6 0
3696 444 1 4.1499999999999998e-01 2.0666946601770544e+00 1.1285429530731145e+01 1.2338781764036781e+01 2 3 0
2273 444 1 4.1499999999999998e-01 6.3774019547462260e+00 1.1287025348741736e+01 1.0505315024900217e+01 4 -2 0
5854 444 2 -8.2999999999999996e-01 1.4942113588951630e-01 3.4551841615096870e+00 1.5405390162605274e+01 -5 -2 0
2164 444 2 -8.2999999999999996e-01 7.8206921018260473e+00 6.3517810928233596e+00 1.0547074495315890e+01 1 -1 0
2166 444 1 4.1499999999999998e-01 8.6380525573418510e+00 6.8417336030839326e+00 1.0457073142145452e+01 1 -1 0
5533 444 2 -8.2999999999999996e-01 7.8056025188533811e+00 5.0327525190615008e+00 1.3873164393626068e+01 -3 0 0
5534 444 1 4.1499999999999998e-01 8.0501492046309799e+00 5.9220717891957388e+00 1.4129172258945184e+01 -3 0 0
354 444 1 4.1499999999999998e-01 7.6386956042123089e+00 4.6603058916870346e+00 1.0167508013118383e+01 -4 -1 0
5423 444 1 4.1499999999999998e-01 1.0018060756606328e+01 4.6928831288175257e+00 1.2143721516945655e+01 -1 5 0
5424 444 1 4.1499999999999998e-01 9.5444781005849073e+00 5.3781175658094211e+00 1.3407868826968373e+01 -1 5 0
5422 444 2 -8.2999999999999996e-01 1.0327724705114381e+01 5.2185855997673309e+00 1.2881269679210991e+01 -1 5 0
1529 444 1 4.1499999999999998e-01 1.2697300518465017e+01 7.5494260438494569e+00 1.3273793001792001e+01 0 -4 0
931 444 2 -8.2999999999999996e-01 9.4533680868942920e+00 1.0982433060960151e+01 1.0164040381603359e+01 -3 4 0
3876 444 1 4.1499999999999998e-01 9.2119798867347900e+00 8.9818287032135551e+00 1.0344667715410216e+01 -3 -1 0
1528 444 2 -8.2999999999999996e-01 1.2672740550125134e+01 6.8592501366283329e+00 1.2611006542201624e+01 0 -4 0
1530 444 1 4.1499999999999998e-01 1.1921446299698943e+01 6.3187053681937515e+00 1.2855137961417581e+01 0 -4 0
353 444 1 4.1499999999999998e-01 8.0692402646404080e+00 3.2229910247809563e+00 9.9658834797718647e+00 -4 -1 0
932 444 1 4.1499999999999998e-01 1.0342441895662528e+01 1.1207517090804584e+01 1.0438116016613687e+01 -3 4 0
5645 444 1 4.1499999999999998e-01 8.3733909338376140e+00 3.2595045561158358e+00 1.4365887548917765e+01 3 3 0
3820 444 2 -8.2999999999999996e-01 1.2348059367056743e+01 8.7634001001916211e+00 1.0265492100538619e+01 -1 -3 0
3821 444 1 4.1499999999999998e-01 1.2788666270548825e+01 8.3670192744883067e+00 1.1017143512159963e+01 -1 -3 0
5644 444 2 -8.2999999999999996e-01 8.6581403846808431e+00 2.4048368612208031e+00 1.4689451793149946e+01 3 3 0
2187 444 1 4.1499999999999998e-01 1.0227571761491435e+01 3.6938567219246632e-01 1.3281374089543377e+01 -7 3 0
5646 444 1 4.1499999999999998e-01 9.2963903814593198e+00 2.1038570953841877e+00 1.4042705224607246e+01 3 3 0
3874 444 2 -8.2999999999999996e-01 9.6536968990097325e+00 8.2171514198987605e+00 9.9753609766768090e+00 -3 -1 0
3875 444 1 4.1499999999999998e-01 1.0581479228259983e+01 8.3636300115277979e+00 1.0159742859276141e+01 -3 -1 0
4561 444 2 -8.2999999999999996e-01 1.1947363381142971e+01 3.2491709415630230e+00 1.0286809742154878e+01 1 2 0
4562 444 1 4.1499999999999998e-01 1.2785656207225715e+01 2.7913768843337290e+00 1.0349436873251600e+01 1 2 0
4563 444 1 4.1499999999999998e-01 1.2179993410746537e+01 4.1776581449286709e+00 1.0292049965226763e+01 1 2 0
3547 444 2 -8.2999999999999996e-01 1.2351681475184193e+01 5.9448365769875258e+00 1.0120744247167014e+01 -2 -3 0
3548 444 1 4.1499999999999998e-01 1.1907209296761266e+01 6.6915160231754900e+00 9.7193141959054650e+00 -2 -3 0
2185 444 2 -8.2999999999999996e-01 1.0351465634716561e+01 1.2514527353828737e+00 1.2930888911685162e+01 -7 3 0
2186 444 1 4.1499999999999998e-01 1.1188420805488036e+01 1.5391996772261403e+00 1.3295497713407718e+01 -7 3 0
2568 444 1 4.1499999999999998e-01 1.0250681668551749e+01 2.5868320446528434e+00 1.0191481274510693e+01 3 0 0
2566 444 2 -8.2999999999999996e-01 9.4478355428375682e+00 2.4903098189523525e+00 1.0703685744840760e+01 3 0 0
2567 444 1 4.1499999999999998e-01 9.7471712215184549e+00 2.2096140187451132e+00 1.1568463104642676e+01 3 0 0
2504 444 1 4.1499999999999998e-01 1.2051080286334544e+01 8.4470064715833235e+00 1.5703675942420302e+01 0 2 0
2503 444 2 -8.2999999999999996e-01 1.2451008377891240e+01 8.3621566883701401e+00 1.4838176152350528e+01 0 2 0
2505 444 1 4.1499999999999998e-01 1.3111725027619114e+01 9.0541855155629527e+00 1.4810221112652068e+01 0 2 0
3225 444 1 4.1499999999999998e-01 1.3320293700503699e+01 1.7350532018425640e+00 1.2009100085979002e+01 2 2 0
3223 444 2 -8.2999999999999996e-01 1.3771879445733779e+01 1.5339718742475759e+00 1.1189424247786164e+01 2 2 0
3224 444 1 4.1499999999999998e-01 1.3421753521733292e+01 6.8326134746364786e-01 1.0924971397763080e+01 2 2 0
3822 444 1 4.1499999999999998e-01 1.2273745042663805e+01 9.6903729997773898e+00 1.0492275583234830e+01 -1 -3 0
3549 444 1 4.1499999999999998e-01 1.2513119919329622e+01 6.2186871226223408e+00 1.1023614878394863e+01 -2 -3 0
4120 444 2 -8.2999999999999996e-01 1.1735204433492999e+01 3.9808083170480528e+00 1.5870723297763973e+01 0 1 0
268 444 2 -8.2999999999999996e-01 1.3101089684590887e+01 1.5330104532764102e+00 1.3587575353994483e+01 -2 0 0
269 444 1 4.1499999999999998e-01 1.3784745228602979e+01 1.7594539145605355e+00 1.4218107135991232e+01 -2 0 0
769 444 2 -8.2999999999999996e-01 1.0030261058899733e+01 1.0371736045107186e+01 1.5298963128680617e+01 -4 2 0
770 444 1 4.1499999999999998e-01 9.1807176105672763e+00 1.0000661950763776e+01 1.5537315341447055e+01 -4 2 0
3614 444 1 4.1499999999999998e-01 1.2663974538524871e+01 1.1308895106954482e+01 1.4188503711435043e+01 3 0 0
771 444 1 4.1499999999999998e-01 1.0624974126337284e+01 1.0070430888420637e+01 1.5985813496868611e+01 -4 2 0
3615 444 1 4.1499999999999998e-01 1.1157748306031307e+01 1.1189840699884778e+01 1.4093615845053183e+01 3 0 0
4122 444 1 4.1499999999999998e-01 1.1531565539122351e+01 4.0656497995138352e+00 1.4939291475499813e+01 0 1 0
4121 444 1 4.1499999999999998e-01 1.2690852815986286e+01 3.9380726550777965e+00 1.5904523291762866e+01 0 1 0
1765 444 2 -8.2999999999999996e-01 1.4612980356436447e+01 4.0268413220305792e+00 1.6194219268430892e+01 0 2 0
46 444 2 -8.2999999999999996e-01 8.4046365094477657e+00 7.5378478004408098e+00 1.4507570994978879e+01 1 -2 0
47 444 1 4.1499999999999998e-01 7.8043403046559252e+00 8.2811546385822563e+00 1.4565642828408672e+01 1 -2 0
48 444 1 4.1499999999999998e-01 9.1729061300292116e+00 7.8100474758090170e+00 1.5009468495517746e+01 1 -2 0
2190 444 1 4.1499999999999998e-01 1.4293517683213581e+01 5.6826937785265352e+00 1.0846333990323208e+01 3 -2 0
1075 444 2 -8.2999999999999996e-01 1.5131444632193970e+01 1.1036595796621395e+01 1.1021033319043621e+01 -1 -1 0
5410 444 2 -8.2999999999999996e-01 1.4140477056748468e+01 1.0278327451736661e+01 1.4749385079985712e+01 2 0 0
5411 444 1 4.1499999999999998e-01 1.4355974488810917e+01 1.0623548061322625e+01 1.5615765758418581e+01 2 0 0
2188 444 2 -8.2999999999999996e-01 1.5178014126342685e+01 6.0484368716159720e+00 1.0834932820333469e+01 3 -2 0
2192 444 1 4.1499999999999998e-01 1.4250848722561582e+01 6.1230446421095692e+00 1.4073081949778011e+01 3 0 0
5412 444 1 4.1499999999999998e-01 1.4854692862929047e+01 1.0578242043967506e+01 1.4187087193168168e+01 2 0 0
2193 444 1 4.1499999999999998e-01 1.5030119067262826e+01 6.6800657511925543e+00 1.5245413120343553e+01 3 0 0
1076 444 1 4.1499999999999998e-01 1.4862861475716496e+01 1.0165862535246768e+01 1.0727914773822937e+01 -1 -1 0
2399 444 1 4.1499999999999998e-01 1.5099053269910845e+01 1.4530489125487969e+00 1.6156439028889483e+01 -1 -3 0
2191 444 2 -8.2999999999999996e-01 1.5092058794944894e+01 6.5169467471375109e+00 1.4304250139629163e+01 3 0 0
270 444 1 4.1499999999999998e-01 1.3207588683748742e+01 5.9241087436263973e-01 1.3445581397520657e+01 -2 0 0
2398 444 2 -8.2999999999999996e-01 1.5137267390825789e+01 1.3590119778779850e+00 1.5204636184686342e+01 -1 -3 0
4208 444 1 4.1499999999999998e-01 9.8594320582072488e+00 1.8049875374553542e-01 1.0748695818579192e+01 -1 0 0
4605 444 1 4.1499999999999998e-01 3.0062829849786112e+00 6.7782517708862100e-01 2.4227851578081317e+01 3 -3 0
5779 444 2 -8.2999999999999996e-01 2.4567812434849916e+00 9.4135160060723120e+00 1.6809630884773370e+01 6 2 0
3085 444 2 -8.2999999999999996e-01 4.6370270286135380e+00 4.1006328580663745e+00 1.6263110004179836e+01 3 3 0
3074 444 1 4.1499999999999998e-01 3.8254274707410230e+00 1.0217311649455079e+01 1.6262757621498103e+01 -2 -6 0
1659 444 1 4.1499999999999998e-01 1.3876977415021317e+00 1.0478087215531254e+01 1.9832468907344669e+01 0 3 0
597 444 1 4.1499999999999998e-01 2.9406547426833964e+00 3.5158068328502980e+00 1.6697234534311985e+01 2 -2 0
1598 444 1 4.1499999999999998e-01 2.1566333750732367e+00 1.2204779734849227e+00 1.6683868983107850e+01 0 1 0
2979 444 1 4.1499999999999998e-01 7.3120164847460085e+00 1.8475455445380111e+00 1.9840433999819421e+01 0 0 0
1599 444 1 4.1499999999999998e-01 3.0775193879764848e+00 2.0565116205025755e-02 1.6620044717035174e+01 0 1 0
3218 444 1 4.1499999999999998e-01 5.3715748605485443e+00 1.0108672969398131e+00 1.8345024749790770e+01 3 0 0
4931 444 1 4.1499999999999998e-01 5.6916975424110978e+00 7.2010172958472012e+00 1.8513204616482934e+01 -2 -5 0
753 444 1 4.1499999999999998e-01 5.1584467546771959e+00 2.9857949070042165e+00 2.1602416193170061e+01 2 2 0
752 444 1 4.1499999999999998e-01 4.2018533919799701e+00 4.1590496466922229e+00 2.1585162698740557e+01 2 2 0
596 444 1 4.1499999999999998e-01 1.5182177900014859e+00 3.0358617787933260e+00 1.6501729428593933e+01 2 -2 0
544 444 2 -8.2999999999999996e-01 2.4550334880222571e+00 1.0245901019559726e+01 2.2967787548877123e+01 3 0 0
3559 444 2 -8.2999999999999996e-01 2.9210038669043223e+00 6.2986164007281262e+00 2.1637757182260124e+01 -1 -3 0
3561 444 1 4.1499999999999998e-01 2.1118302761904135e+00 6.4314385798427116e+00 2.2131546853921083e+01 -1 -3 0
546 444 1 4.1499999999999998e-01 2.2367892316002913e+00 9.8270152563359368e+00 2.3800335590164359e+01 3 0 0
3560 444 1 4.1499999999999998e-01 3.4498756362638066e+00 7.0726868486461081e+00 2.1830996600393117e+01 -1 -3 0
850 444 2 -8.2999999999999996e-01 6.0632413993907774e-01 9.3281183351257599e+00 2.1302562470496099e+01 1 -1 0
2814 444 1 4.1499999999999998e-01 5.3376141504211834e+00 5.3593817911638642e+00 1.9609789317161646e+01 -1 0 0
595 444 2 -8.2999999999999996e-01 2.2603544689991546e+00 2.9788589957530105e+00 1.7103573988418475e+01 2 -2 0
2926 444 2 -8.2999999999999996e-01 1.2374990965395638e+00 6.3316396517982767e+00 1.8660254250495676e+01 1 5 0
2927 444 1 4.1499999999999998e-01 1.0643897314716197e+00 6.9979376771985713e+00 1.9325319657599849e+01 1 5 0
751 444 2 -8.2999999999999996e-01 4.7987530687289333e+00 3.6774181914400104e+00 2.2157852858313142e+01 2 2 0
399 444 1 4.1499999999999998e-01 7.1784602807217928e+00 3.8006294432932890e+00 1.9951724142949125e+01 -3 1 0
397 444 2 -8.2999999999999996e-01 7.1069535926562342e+00 4.7510553954236716e+00 1.9863354662663532e+01 -3 1 0
1385 444 1 4.1499999999999998e-01 3.6080761081232788e+00 4.0590169040690904e+00 1.9471745454994203e+01 1 0 0
1386 444 1 4.1499999999999998e-01 2.8952810256017014e+00 3.0256660910481958e+00 1.8625575036738709e+01 1 0 0
1384 444 2 -8.2999999999999996e-01 3.0875438588109048e+00 3.2581403471828856e+00 1.9533992670883407e+01 1 0 0
2928 444 1 4.1499999999999998e-01 2.0335014252138621e+00 5.8933636595775347e+00 1.8961130301987026e+01 1 5 0
2812 444 2 -8.2999999999999996e-01 4.4416281215693356e+00 5.6178638753917793e+00 1.9393852973597639e+01 -1 0 0
2813 444 1 4.1499999999999998e-01 4.0909397371273668e+00 5.9732261367039783e+00 2.0210533975346593e+01 -1 0 0
5443 444 2 -8.2999999999999996e-01 1.6937540014056782e+00 1.9816324976403350e+00 2.1523408023443402e+01 1 -1 0
545 444 1 4.1499999999999998e-01 1.7421893007986593e+00 9.9966574104881207e+00 2.2379600424217781e+01 3 0 0
1467 444 1 4.1499999999999998e-01 3.6020791552779610e+00 9.1107235354655280e+00 2.2759828380426949e+01 -1 5 0
398 444 1 4.1499999999999998e-01 7.4888131354853273e+00 5.0965069037516493e+00 2.0670248943239784e+01 -3 1 0
3086 444 1 4.1499999999999998e-01 5.4525528500396998e+00 4.3644754229260645e+00 1.6689181177506104e+01 3 3 0
4930 444 2 -8.2999999999999996e-01 5.1012250570769755e+00 7.7981988085207350e+00 1.8053913372590380e+01 -2 -5 0
4932 444 1 4.1499999999999998e-01 4.5789855600259326e+00 7.2305559889721813e+00 1.7487098072335971e+01 -2 -5 0
1465 444 2 -8.2999999999999996e-01 4.2266799983374108e+00 8.4135879824988322e+00 2.2559559414635430e+01 -1 5 0