LAMMPS data file via write_data, version 11 Aug 2017, timestep = 5000000

7154 atoms
4 atom types
4000 bonds
1 bond types
2000 angles
1 angle types

0.0000000000000000e+00 4.5679949999999998e+01 xlo xhi
0.0000000000000000e+00 4.6885919999999999e+01 ylo yhi
0.0000000000000000e+00 6.5000000000000000e+01 zlo zhi

Masses

1 1.0079
2 15.9994
3 18.9984
4 107.868

Bond Coeffs # harmonic

1 450 0.9572

Angle Coeffs # harmonic

1 55 104.52

Atoms # full

6003 444 4 0.0000000000000000e+00 1.6907200000000000e+00 0.0000000000000000e+00 0.0000000000000000e+00 0 0 0
6004 444 4 0.0000000000000000e+00 4.2285000000000004e+00 1.4651900000000000e+00 0.0000000000000000e+00 0 0 0
6005 444 4 6.9400000000000000e-03 1.6907700000000001e+00 0.0000000000000000e+00 7.1781499999999996e+00 0 0 0
6006 444 4 6.9400000000000000e-03 4.2285500000000003e+00 1.4651900000000000e+00 7.1781499999999996e+00 0 0 0
6007 444 4 0.0000000000000000e+00 2.5366499999999998e+00 1.4651900000000000e+00 2.3926400000000001e+00 0 0 0
6008 444 4 0.0000000000000000e+00 5.0744199999999999e+00 0.0000000000000000e+00 2.3926400000000001e+00 0 0 0
6009 444 4 0.0000000000000000e+00 8.4509000000000001e-01 1.4651900000000000e+00 4.7824200000000001e+00 0 0 0
6010 444 4 0.0000000000000000e+00 3.3828600000000000e+00 0.0000000000000000e+00 4.7824499999999999e+00 0 0 0
6011 444 4 0.0000000000000000e+00 1.6907200000000000e+00 2.9303699999999999e+00 0.0000000000000000e+00 0 0 0
6012 444 4 0.0000000000000000e+00 4.2285000000000004e+00 4.3955599999999997e+00 0.0000000000000000e+00 0 0 0
6013 444 4 6.9400000000000000e-03 1.6907700000000001e+00 2.9303699999999999e+00 7.1781899999999998e+00 0 0 0
6014 444 4 6.9400000000000000e-03 4.2285500000000003e+00 4.3955599999999997e+00 7.1781600000000001e+00 0 0 0
6015 444 4 0.0000000000000000e+00 2.5366499999999998e+00 4.3955599999999997e+00 2.3926400000000001e+00 0 0 0
6016 444 4 0.0000000000000000e+00 5.0744199999999999e+00 2.9303699999999999e+00 2.3926400000000001e+00 0 0 0
6017 444 4 0.0000000000000000e+00 8.4509000000000001e-01 4.3955599999999997e+00 4.7824499999999999e+00 0 0 0
6018 444 4 0.0000000000000000e+00 3.3828700000000000e+00 2.9303699999999999e+00 4.7824400000000002e+00 0 0 0
6019 444 4 0.0000000000000000e+00 1.6907200000000000e+00 5.8607399999999998e+00 0.0000000000000000e+00 0 0 0
6020 444 4 0.0000000000000000e+00 4.2285000000000004e+00 7.3259299999999996e+00 0.0000000000000000e+00 0 0 0
6021 444 4 6.9400000000000000e-03 1.6907700000000001e+00 5.8607399999999998e+00 7.1781499999999996e+00 0 0 0
6022 444 4 6.9400000000000000e-03 4.2285500000000003e+00 7.3259299999999996e+00 7.1781499999999996e+00 0 0 0
6023 444 4 0.0000000000000000e+00 2.5366499999999998e+00 7.3259299999999996e+00 2.3926400000000001e+00 0 0 0
6024 444 4 0.0000000000000000e+00 5.0744199999999999e+00 5.8607399999999998e+00 2.3926400000000001e+00 0 0 0
6025 444 4 0.0000000000000000e+00 8.4509000000000001e-01 7.3259299999999996e+00 4.7824200000000001e+00 0 0 0
6026 444 4 0.0000000000000000e+00 3.3828600000000000e+00 5.8607399999999998e+00 4.7824499999999999e+00 0 0 0
6131 444 4 0.0000000000000000e+00 6.7662699999999996e+00 0.0000000000000000e+00 0.0000000000000000e+00 0 0 0
6133 444 4 6.9400000000000000e-03 6.7663200000000003e+00 0.0000000000000000e+00 7.1781499999999996e+00 0 0 0
6135 444 4 0.0000000000000000e+00 7.6121999999999996e+00 1.4651900000000000e+00 2.3926400000000001e+00 0 0 0
6137 444 4 0.0000000000000000e+00 5.9206399999999997e+00 1.4651900000000000e+00 4.7824200000000001e+00 0 0 0
6139 444 4 0.0000000000000000e+00 6.7662699999999996e+00 2.9303699999999999e+00 0.0000000000000000e+00 0 0 0
6141 444 4 6.9400000000000000e-03 6.7663200000000003e+00 2.9303699999999999e+00 7.1781899999999998e+00 0 0 0
6143 444 4 0.0000000000000000e+00 7.6121999999999996e+00 4.3955599999999997e+00 2.3926400000000001e+00 0 0 0
6145 444 4 0.0000000000000000e+00 5.9206399999999997e+00 4.3955599999999997e+00 4.7824499999999999e+00 0 0 0
6147 444 4 0.0000000000000000e+00 6.7662699999999996e+00 5.8607399999999998e+00 0.0000000000000000e+00 0 0 0
6149 444 4 6.9400000000000000e-03 6.7663200000000003e+00 5.8607399999999998e+00 7.1781499999999996e+00 0 0 0
6151 444 4 0.0000000000000000e+00 7.6121999999999996e+00 7.3259299999999996e+00 2.3926400000000001e+00 0 0 0
6153 444 4 0.0000000000000000e+00 5.9206399999999997e+00 7.3259299999999996e+00 4.7824200000000001e+00 0 0 0
6027 444 4 0.0000000000000000e+00 1.6907200000000000e+00 8.7911099999999998e+00 0.0000000000000000e+00 0 0 0
6028 444 4 0.0000000000000000e+00 4.2285000000000004e+00 1.0256300000000000e+01 0.0000000000000000e+00 0 0 0
6029 444 4 6.9400000000000000e-03 1.6907700000000001e+00 8.7911099999999998e+00 7.1781899999999998e+00 0 0 0
6030 444 4 6.9400000000000000e-03 4.2285500000000003e+00 1.0256300000000000e+01 7.1781600000000001e+00 0 0 0
6031 444 4 0.0000000000000000e+00 2.5366499999999998e+00 1.0256300000000000e+01 2.3926400000000001e+00 0 0 0
6032 444 4 0.0000000000000000e+00 5.0744199999999999e+00 8.7911099999999998e+00 2.3926400000000001e+00 0 0 0
6033 444 4 0.0000000000000000e+00 8.4509000000000001e-01 1.0256300000000000e+01 4.7824499999999999e+00 0 0 0
6034 444 4 0.0000000000000000e+00 3.3828700000000000e+00 8.7911099999999998e+00 4.7824400000000002e+00 0 0 0
6155 444 4 0.0000000000000000e+00 6.7662699999999996e+00 8.7911099999999998e+00 0.0000000000000000e+00 0 0 0
6157 444 4 6.9400000000000000e-03 6.7663200000000003e+00 8.7911099999999998e+00 7.1781899999999998e+00 0 0 0
6159 444 4 0.0000000000000000e+00 7.6121999999999996e+00 1.0256300000000000e+01 2.3926400000000001e+00 0 0 0
6161 444 4 0.0000000000000000e+00 5.9206399999999997e+00 1.0256300000000000e+01 4.7824499999999999e+00 0 0 0
6132 444 4 0.0000000000000000e+00 9.3040500000000002e+00 1.4651900000000000e+00 0.0000000000000000e+00 0 0 0
6134 444 4 6.9400000000000000e-03 9.3041000000000000e+00 1.4651900000000000e+00 7.1781499999999996e+00 0 0 0
6136 444 4 0.0000000000000000e+00 1.0149970000000000e+01 0.0000000000000000e+00 2.3926400000000001e+00 0 0 0
6138 444 4 0.0000000000000000e+00 8.4584100000000007e+00 0.0000000000000000e+00 4.7824499999999999e+00 0 0 0
6140 444 4 0.0000000000000000e+00 9.3040500000000002e+00 4.3955599999999997e+00 0.0000000000000000e+00 0 0 0
6142 444 4 6.9400000000000000e-03 9.3041000000000000e+00 4.3955599999999997e+00 7.1781600000000001e+00 0 0 0
6144 444 4 0.0000000000000000e+00 1.0149970000000000e+01 2.9303699999999999e+00 2.3926400000000001e+00 0 0 0
6146 444 4 0.0000000000000000e+00 8.4584200000000003e+00 2.9303699999999999e+00 4.7824400000000002e+00 0 0 0
6148 444 4 0.0000000000000000e+00 9.3040500000000002e+00 7.3259299999999996e+00 0.0000000000000000e+00 0 0 0
6150 444 4 6.9400000000000000e-03 9.3041000000000000e+00 7.3259299999999996e+00 7.1781499999999996e+00 0 0 0
6152 444 4 0.0000000000000000e+00 1.0149970000000000e+01 5.8607399999999998e+00 2.3926400000000001e+00 0 0 0
6154 444 4 0.0000000000000000e+00 8.4584100000000007e+00 5.8607399999999998e+00 4.7824499999999999e+00 0 0 0
6265 444 4 0.0000000000000000e+00 1.0996190000000000e+01 1.4651900000000000e+00 4.7824200000000001e+00 0 0 0
6273 444 4 0.0000000000000000e+00 1.0996190000000000e+01 4.3955599999999997e+00 4.7824499999999999e+00 0 0 0
6281 444 4 0.0000000000000000e+00 1.0996190000000000e+01 7.3259299999999996e+00 4.7824200000000001e+00 0 0 0
6156 444 4 0.0000000000000000e+00 9.3040500000000002e+00 1.0256300000000000e+01 0.0000000000000000e+00 0 0 0
6158 444 4 6.9400000000000000e-03 9.3041000000000000e+00 1.0256300000000000e+01 7.1781600000000001e+00 0 0 0
6160 444 4 0.0000000000000000e+00 1.0149970000000000e+01 8.7911099999999998e+00 2.3926400000000001e+00 0 0 0
6162 444 4 0.0000000000000000e+00 8.4584200000000003e+00 8.7911099999999998e+00 4.7824400000000002e+00 0 0 0
6289 444 4 0.0000000000000000e+00 1.0996190000000000e+01 1.0256300000000000e+01 4.7824499999999999e+00 0 0 0
6259 444 4 0.0000000000000000e+00 1.1841820000000000e+01 0.0000000000000000e+00 0.0000000000000000e+00 0 0 0
6260 444 4 0.0000000000000000e+00 1.4379600000000000e+01 1.4651900000000000e+00 0.0000000000000000e+00 0 0 0
6261 444 4 6.9400000000000000e-03 1.1841870000000000e+01 0.0000000000000000e+00 7.1781499999999996e+00 0 0 0
6262 444 4 6.9400000000000000e-03 1.4379650000000000e+01 1.4651900000000000e+00 7.1781499999999996e+00 0 0 0
6263 444 4 0.0000000000000000e+00 1.2687749999999999e+01 1.4651900000000000e+00 2.3926400000000001e+00 0 0 0
6264 444 4 0.0000000000000000e+00 1.5225519999999999e+01 0.0000000000000000e+00 2.3926400000000001e+00 0 0 0
6266 444 4 0.0000000000000000e+00 1.3533960000000000e+01 0.0000000000000000e+00 4.7824499999999999e+00 0 0 0
6267 444 4 0.0000000000000000e+00 1.1841820000000000e+01 2.9303699999999999e+00 0.0000000000000000e+00 0 0 0
6268 444 4 0.0000000000000000e+00 1.4379600000000000e+01 4.3955599999999997e+00 0.0000000000000000e+00 0 0 0
6269 444 4 6.9400000000000000e-03 1.1841870000000000e+01 2.9303699999999999e+00 7.1781899999999998e+00 0 0 0
6270 444 4 6.9400000000000000e-03 1.4379650000000000e+01 4.3955599999999997e+00 7.1781600000000001e+00 0 0 0
6271 444 4 0.0000000000000000e+00 1.2687749999999999e+01 4.3955599999999997e+00 2.3926400000000001e+00 0 0 0
6272 444 4 0.0000000000000000e+00 1.5225519999999999e+01 2.9303699999999999e+00 2.3926400000000001e+00 0 0 0
6274 444 4 0.0000000000000000e+00 1.3533970000000000e+01 2.9303699999999999e+00 4.7824400000000002e+00 0 0 0
6275 444 4 0.0000000000000000e+00 1.1841820000000000e+01 5.8607399999999998e+00 0.0000000000000000e+00 0 0 0
6276 444 4 0.0000000000000000e+00 1.4379600000000000e+01 7.3259299999999996e+00 0.0000000000000000e+00 0 0 0
6277 444 4 6.9400000000000000e-03 1.1841870000000000e+01 5.8607399999999998e+00 7.1781499999999996e+00 0 0 0
6278 444 4 6.9400000000000000e-03 1.4379650000000000e+01 7.3259299999999996e+00 7.1781499999999996e+00 0 0 0
6279 444 4 0.0000000000000000e+00 1.2687749999999999e+01 7.3259299999999996e+00 2.3926400000000001e+00 0 0 0
6280 444 4 0.0000000000000000e+00 1.5225519999999999e+01 5.8607399999999998e+00 2.3926400000000001e+00 0 0 0
6282 444 4 0.0000000000000000e+00 1.3533960000000000e+01 5.8607399999999998e+00 4.7824499999999999e+00 0 0 0
6283 444 4 0.0000000000000000e+00 1.1841820000000000e+01 8.7911099999999998e+00 0.0000000000000000e+00 0 0 0
6284 444 4 0.0000000000000000e+00 1.4379600000000000e+01 1.0256300000000000e+01 0.0000000000000000e+00 0 0 0
6285 444 4 6.9400000000000000e-03 1.1841870000000000e+01 8.7911099999999998e+00 7.1781899999999998e+00 0 0 0
6286 444 4 6.9400000000000000e-03 1.4379650000000000e+01 1.0256300000000000e+01 7.1781600000000001e+00 0 0 0
6287 444 4 0.0000000000000000e+00 1.2687749999999999e+01 1.0256300000000000e+01 2.3926400000000001e+00 0 0 0
6288 444 4 0.0000000000000000e+00 1.5225519999999999e+01 8.7911099999999998e+00 2.3926400000000001e+00 0 0 0
6290 444 4 0.0000000000000000e+00 1.3533970000000000e+01 8.7911099999999998e+00 4.7824400000000002e+00 0 0 0
5722 444 2 -8.2999999999999996e-01 5.6085795168545438e+00 4.4074823467831408e+00 1.0104439046558261e+01 -1 -2 0
5723 444 1 4.1499999999999998e-01 4.7510957403252734e+00 4.5695191481039945e+00 9.7111226836049838e+00 -1 -2 0
5724 444 1 4.1499999999999998e-01 5.4981020163147214e+00 3.5920414868017820e+00 1.0593400591929738e+01 -1 -2 0
3523 444 2 -8.2999999999999996e-01 4.6647134061882642e+00 1.8706482988584807e+00 1.0446599512472694e+01 -4 -1 0
3524 444 1 4.1499999999999998e-01 3.8085839223390709e+00 2.2221740352375416e+00 1.0690943239879781e+01 -4 -1 0
643 444 2 -8.2999999999999996e-01 6.2677023196959105e+00 8.0810347879612792e+00 1.3015812345936158e+01 -3 -3 0
645 444 1 4.1499999999999998e-01 6.7609636069730481e+00 8.5364381203900237e+00 1.3698112508536230e+01 -3 -3 0
644 444 1 4.1499999999999998e-01 6.5970022375287423e+00 7.1826065537700314e+00 1.3040729640275028e+01 -3 -3 0
5599 444 2 -8.2999999999999996e-01 6.7879450674992530e+00 1.9255284882707895e+00 1.3324412580709351e+01 3 -5 0
5601 444 1 4.1499999999999998e-01 5.8783317706055884e+00 2.1207208105308006e+00 1.3549659575939350e+01 3 -5 0
5376 444 1 4.1499999999999998e-01 6.0258302142783426e+00 1.5419154841405236e-01 1.2619623999726638e+01 -3 6 0
5600 444 1 4.1499999999999998e-01 7.2984647282092512e+00 2.2982366953761524e+00 1.4043224575290054e+01 3 -5 0
5943 444 1 4.1499999999999998e-01 6.8020597994424881e+00 5.3323501057067144e+00 1.3003412584715887e+01 -1 0 0
5941 444 2 -8.2999999999999996e-01 7.1888051907720163e+00 5.7564896484540844e+00 1.2237406282400944e+01 -1 0 0
5942 444 1 4.1499999999999998e-01 6.8414030342045642e+00 5.2675790262956763e+00 1.1491409829020331e+01 -1 0 0
2838 444 1 4.1499999999999998e-01 2.6155116685360174e+00 4.8026281115551237e+00 1.1504258720655873e+01 -2 -1 0
2836 444 2 -8.2999999999999996e-01 2.5531763425342087e+00 5.7291574403930365e+00 1.1272116956753417e+01 -2 -1 0
2837 444 1 4.1499999999999998e-01 2.8634050152195116e+00 6.1928407613975951e+00 1.2049926706461171e+01 -2 -1 0
3824 444 1 4.1499999999999998e-01 3.3493549577310877e+00 2.8997688575575524e+00 1.3955361118016125e+01 -3 -4 0
3823 444 2 -8.2999999999999996e-01 4.1080864778275590e+00 2.3298763435090803e+00 1.4080982985454510e+01 -3 -4 0
4654 444 2 -8.2999999999999996e-01 5.5675991538884579e+00 5.0058317812102722e+00 1.4614193232653584e+01 -4 -2 0
4656 444 1 4.1499999999999998e-01 5.2355615002003102e+00 4.2328439294880225e+00 1.4157604632960739e+01 -4 -2 0
4655 444 1 4.1499999999999998e-01 4.7883717252812863e+00 5.4162414248443804e+00 1.4989161598885717e+01 -4 -2 0
3825 444 1 4.1499999999999998e-01 3.9342114778118349e+00 1.8772191971290497e+00 1.4906271332245039e+01 -3 -4 0
2093 444 1 4.1499999999999998e-01 2.5952664506349103e+00 8.5342236446341726e+00 1.3070670513578772e+01 1 0 0
2092 444 2 -8.2999999999999996e-01 3.2476313729334443e+00 7.8340307001860516e+00 1.3051102052697882e+01 1 0 0
2094 444 1 4.1499999999999998e-01 4.0634629040711525e+00 8.2727998314856066e+00 1.2809994011629442e+01 1 0 0
237 444 1 4.1499999999999998e-01 5.6488512215179743e+00 9.1245678366370360e+00 1.1682788574524372e+01 5 -2 0
4581 444 1 4.1499999999999998e-01 1.6919187048752071e+00 2.8054299065257089e+00 1.0829502621082357e+01 4 0 0
732 444 1 4.1499999999999998e-01 2.3283180579055824e+00 1.0508214072753017e+01 1.3692806826295786e+01 -5 0 0
730 444 2 -8.2999999999999996e-01 1.9145135088460761e+00 1.0098672797061841e+01 1.2933021594668551e+01 -5 0 0
5362 444 2 -8.2999999999999996e-01 7.5523492075180290e+00 1.4129863017347226e+00 1.0649496833354357e+01 0 -3 0
4580 444 1 4.1499999999999998e-01 2.3430343581355300e+00 3.0310414513470922e+00 1.2177480005706546e+01 4 0 0
5363 444 1 4.1499999999999998e-01 6.6072934138347481e+00 1.3467868628834390e+00 1.0512677658792178e+01 0 -3 0
538 444 2 -8.2999999999999996e-01 1.5491115332688938e+00 3.9356129033377605e+00 1.3498259648533480e+01 -4 -3 0
539 444 1 4.1499999999999998e-01 1.0911279142976407e+00 4.7599152447609514e+00 1.3333917020949198e+01 -4 -3 0
4949 444 1 4.1499999999999998e-01 9.6437717167095161e-01 9.1574875906143216e+00 1.0551218851024137e+01 3 1 0
4579 444 2 -8.2999999999999996e-01 2.5359101107202275e+00 2.9919901660850581e+00 1.1240727205237301e+01 4 0 0
731 444 1 4.1499999999999998e-01 9.7899891688014840e-01 1.0107520347643209e+01 1.3135422228996651e+01 -5 0 0
235 444 2 -8.2999999999999996e-01 5.1861207190066594e+00 9.4289283357163836e+00 1.0902098015390882e+01 5 -2 0
236 444 1 4.1499999999999998e-01 5.8747916317681694e+00 9.7755010067154640e+00 1.0334777995551482e+01 5 -2 0
4037 444 1 4.1499999999999998e-01 3.4830300430522052e+00 1.0196514872810379e+01 1.0275479703893295e+01 5 -2 0
4038 444 1 4.1499999999999998e-01 2.6229758770994911e+00 1.0715511814747529e+01 1.1408106942292378e+01 5 -2 0
4036 444 2 -8.2999999999999996e-01 2.7169875929548728e+00 1.0741368531950039e+01 1.0455885324746401e+01 5 -2 0
540 444 1 4.1499999999999998e-01 9.7456701525709188e-01 3.4568211888828011e+00 1.4095661485136587e+01 -4 -3 0
1695 444 1 4.1499999999999998e-01 1.2876421421710421e-01 4.2842532784598791e-01 1.2962905847869928e+01 1 3 0
4948 444 2 -8.2999999999999996e-01 2.0659739621524922e-02 8.9974142081831907e+00 1.0553721230479351e+01 3 1 0
899 444 1 4.1499999999999998e-01 3.2462449515607270e+00 7.0300929527985936e+00 1.4808582611912898e+01 0 0 0
2892 444 1 4.1499999999999998e-01 7.0304653495792921e+00 5.0188490166213979e+00 1.5387880992970679e+01 4 6 0
900 444 1 4.1499999999999998e-01 2.2623855031945292e+00 6.7364721377073549e+00 1.5921103816732986e+01 0 0 0
898 444 2 -8.2999999999999996e-01 3.1359916786353770e+00 6.5082124685243450e+00 1.5603389221214124e+01 0 0 0
4953 444 1 4.1499999999999998e-01 7.0366620619064966e+00 9.6968943832310508e+00 1.5726570076357122e+01 5 2 0
3525 444 1 4.1499999999999998e-01 4.4990242694891744e+00 9.4789695029626431e-01 1.0253444381248716e+01 -4 -1 0
3572 444 1 4.1499999999999998e-01 7.5648709581268414e-01 6.1285239384685273e+00 1.0544200364686349e+01 -1 1 0
912 444 1 4.1499999999999998e-01 3.1282591256352128e+00 1.1010318116956684e+01 1.5847953625978937e+01 -3 0 0
3865 444 2 -8.2999999999999996e-01 5.0720946009708501e-02 3.1443738766145737e+00 1.0360416845424812e+01 1 1 0
1194 444 1 4.1499999999999998e-01 2.7180740685652722e+00 4.1624446081539473e-01 1.6118095037359726e+01 -1 -1 0
1614 444 1 4.1499999999999998e-01 2.0706764289847504e-01 2.1042748773897793e+00 1.6018433683130599e+01 1 -1 0
910 444 2 -8.2999999999999996e-01 3.2164390486534500e+00 1.1336281404726964e+01 1.4952295153112793e+01 -3 0 0
1612 444 2 -8.2999999999999996e-01 3.8008416340354007e-01 2.0780355978321512e+00 1.5077365741162644e+01 1 -1 0
2270 444 1 4.1499999999999998e-01 5.7761944465811066e+00 1.1536254198195058e+01 1.5692073372140658e+01 -4 5 0
2516 444 1 4.1499999999999998e-01 5.1799941800411878e-02 1.0435701129638515e+01 1.6024335536257457e+01 -5 2 0
911 444 1 4.1499999999999998e-01 4.1234009969385106e+00 1.1636796350196613e+01 1.4894479519742045e+01 -3 0 0
2847 444 1 4.1499999999999998e-01 1.3704374051800935e+01 5.3248798902949290e-01 1.2318936096306000e+01 0 1 0
5089 444 2 -8.2999999999999996e-01 7.6468505574219297e+00 1.0435785262824172e+01 1.0023000490884618e+01 2 0 0
5364 444 1 4.1499999999999998e-01 7.6472116206695961e+00 1.5975074683515826e+00 1.1583940731416977e+01 0 -3 0
2823 444 1 4.1499999999999998e-01 7.6827561745070660e+00 7.5105279669418179e+00 1.1368699674199195e+01 -1 -1 0
3083 444 1 4.1499999999999998e-01 1.0027873167137203e+01 3.6808279720079011e+00 1.2763942563998119e+01 -1 0 0
4637 444 1 4.1499999999999998e-01 8.6115044076809077e+00 2.8434273105360202e+00 1.0254937664414379e+01 2 0 0
4636 444 2 -8.2999999999999996e-01 9.4786373687825130e+00 3.2375690662580352e+00 1.0349619159308618e+01 2 0 0
3084 444 1 4.1499999999999998e-01 9.8961483114440281e+00 4.6927016725222011e+00 1.1645615495092850e+01 -1 0 0
3082 444 2 -8.2999999999999996e-01 9.9527734505880279e+00 4.6206115744388967e+00 1.2598416171894135e+01 -1 0 0
4638 444 1 4.1499999999999998e-01 1.0062713304206733e+01 2.4966107054944433e+00 1.0511074687959860e+01 2 0 0
4674 444 1 4.1499999999999998e-01 8.7254016227862099e+00 8.1709602221462507e+00 1.4276983556362424e+01 -4 0 0
950 444 1 4.1499999999999998e-01 1.4164792090517839e+01 3.6325099209990599e+00 1.0836370608514954e+01 3 -3 0
3835 444 2 -8.2999999999999996e-01 1.1542610832401119e+01 1.5895127957714572e+00 1.1046094399041225e+01 2 3 0
2821 444 2 -8.2999999999999996e-01 8.4897241928292129e+00 7.9299214232215887e+00 1.1070130411973686e+01 -1 -1 0
5090 444 1 4.1499999999999998e-01 7.7459741045489316e+00 9.5801929097136238e+00 1.0440574564043894e+01 2 0 0
1473 444 1 4.1499999999999998e-01 9.3811181352896131e+00 5.9594693083506893e+00 1.3473811802267177e+01 4 4 0
1471 444 2 -8.2999999999999996e-01 9.1646802319846543e+00 6.4942521002281959e+00 1.4237614060374815e+01 4 4 0
2822 444 1 4.1499999999999998e-01 9.0676644696689550e+00 7.2022271324856684e+00 1.0840613693073175e+01 -1 -1 0
3836 444 1 4.1499999999999998e-01 1.2003157996336235e+01 2.3947605356596657e+00 1.1282111873966215e+01 2 3 0
3837 444 1 4.1499999999999998e-01 1.2184306119280153e+01 1.0832380475771317e+00 1.0547952955792876e+01 2 3 0
2260 444 2 -8.2999999999999996e-01 1.0146238312468084e+01 6.0322419066360791e+00 1.0096302753720389e+01 1 2 0
2261 444 1 4.1499999999999998e-01 9.7810909599156730e+00 5.2215150370700298e+00 9.7418714955763974e+00 1 2 0
2262 444 1 4.1499999999999998e-01 1.1070878528120693e+01 6.0067752904334988e+00 9.8500834186901809e+00 1 2 0
4248 444 1 4.1499999999999998e-01 1.2296331391330050e+01 7.5602133182315114e+00 1.0520607051631375e+01 -4 -1 0
775 444 2 -8.2999999999999996e-01 1.2520117596797936e+01 4.0434653299348522e+00 1.1412300791216369e+01 2 4 0
776 444 1 4.1499999999999998e-01 1.1682170303079380e+01 4.5000587531622882e+00 1.1337472956210108e+01 2 4 0
777 444 1 4.1499999999999998e-01 1.3078481840669509e+01 4.6456667477777245e+00 1.1904048316917741e+01 2 4 0
5091 444 1 4.1499999999999998e-01 8.5029093985154436e+00 1.0852213372299930e+01 1.0122914218232994e+01 2 0 0
1472 444 1 4.1499999999999998e-01 8.7763991139478694e+00 5.8786801528145229e+00 1.4859338133680925e+01 4 4 0
2685 444 1 4.1499999999999998e-01 1.0888925752203020e+01 1.0041155081198530e+01 1.0240155553716871e+01 -1 -7 0
2684 444 1 4.1499999999999998e-01 1.0462762559419870e+01 8.6561462309152706e+00 1.0678368524508716e+01 -1 -7 0
2683 444 2 -8.2999999999999996e-01 1.1235602058945132e+01 9.1756664018068950e+00 1.0456896737381184e+01 -1 -7 0
4336 444 2 -8.2999999999999996e-01 1.3705596878104020e+01 3.0655924710917998e-01 1.0105060099604412e+01 1 -5 0
4246 444 2 -8.2999999999999996e-01 1.2808651202073637e+01 6.7553979194873390e+00 1.0598279344887674e+01 -4 -1 0
3980 444 1 4.1499999999999998e-01 1.0845056497401645e+01 6.9500836598879436e+00 1.3680724200093925e+01 0 0 0
2162 444 1 4.1499999999999998e-01 1.3298895820043882e+01 9.7237446347871401e+00 1.4461854245746780e+01 0 -1 0
2163 444 1 4.1499999999999998e-01 1.2116979311823370e+01 8.8911839591343345e+00 1.4012619576955114e+01 0 -1 0
2161 444 2 -8.2999999999999996e-01 1.2342998756669186e+01 9.7309939504945238e+00 1.4412453783588015e+01 0 -1 0
5433 444 1 4.1499999999999998e-01 1.3292409208463273e+01 4.0022392188432372e+00 1.4159255623651488e+01 0 1 0
4247 444 1 4.1499999999999998e-01 1.3685564214955841e+01 6.9996206082099217e+00 1.0302287869313064e+01 -4 -1 0
3979 444 2 -8.2999999999999996e-01 1.1598445545690639e+01 7.2919295425592754e+00 1.3199289973290012e+01 0 0 0
5432 444 1 4.1499999999999998e-01 1.3309745352541603e+01 2.4942358064167141e+00 1.4026891071798701e+01 0 1 0
3539 444 1 4.1499999999999998e-01 1.0938785781177550e+01 1.0455740405160274e+01 1.3727182103926840e+01 4 -2 0
3538 444 2 -8.2999999999999996e-01 1.0099772169598065e+01 1.0809960772692651e+01 1.3432536634484523e+01 4 -2 0
5431 444 2 -8.2999999999999996e-01 1.2879912501209080e+01 3.2078231765301850e+00 1.4498344830905445e+01 0 1 0
3540 444 1 4.1499999999999998e-01 9.4545043026912072e+00 1.0158421687887245e+01 1.3707050842290785e+01 4 -2 0
4672 444 2 -8.2999999999999996e-01 8.3302407514253183e+00 8.9954405385005316e+00 1.4560377424572529e+01 -4 0 0
3981 444 1 4.1499999999999998e-01 1.1495546137777788e+01 6.9435047809085120e+00 1.2313714507805640e+01 0 0 0
949 444 2 -8.2999999999999996e-01 1.5017787134351867e+01 3.4074231605895497e+00 1.0464930229508816e+01 3 -3 0
727 444 2 -8.2999999999999996e-01 1.3657936489232920e+01 5.6038404372748847e+00 1.3821389411484446e+01 5 -4 0
4411 444 2 -8.2999999999999996e-01 1.4136092428496452e+01 9.5014081974127667e+00 1.0767819098164241e+01 4 1 0
728 444 1 4.1499999999999998e-01 1.2983702944104126e+01 6.2007062047808477e+00 1.4146032017813967e+01 5 -4 0
4413 444 1 4.1499999999999998e-01 1.4421087947015980e+01 1.0415146330655640e+01 1.0777485576779506e+01 4 1 0
4337 444 1 4.1499999999999998e-01 1.4303001490715491e+01 8.9562411481632564e-01 9.6442538166611804e+00 1 -5 0
1690 444 2 -8.2999999999999996e-01 1.5199677963513228e+01 1.0027739377527677e+01 1.5063486106449725e+01 3 -2 0
4412 444 1 4.1499999999999998e-01 1.3191202327110123e+01 9.5431610205762158e+00 1.0915032580999885e+01 4 1 0
729 444 1 4.1499999999999998e-01 1.4460858842605935e+01 6.1249396872265089e+00 1.3823285593859133e+01 5 -4 0
1691 444 1 4.1499999999999998e-01 1.5203891095476997e+01 1.0984426328687183e+01 1.5094539495613002e+01 3 -2 0
4896 444 1 4.1499999999999998e-01 8.0908348437480271e+00 1.4798352875885146e+00 1.6076177922671658e+01 5 -4 0
2890 444 2 -8.2999999999999996e-01 7.8372903441058366e+00 4.8230795821165753e+00 1.5864262815956959e+01 4 6 0
4894 444 2 -8.2999999999999996e-01 8.3710799324570075e+00 2.1835400585235254e+00 1.5490947922459592e+01 5 -4 0
2845 444 2 -8.2999999999999996e-01 1.3962641780461304e+01 1.0048841362587198e+00 1.3110372606313398e+01 0 1 0
2891 444 1 4.1499999999999998e-01 7.9527448735878767e+00 3.8783134472331340e+00 1.5762679995347957e+01 4 6 0
2449 444 2 -8.2999999999999996e-01 1.1034192745675600e+01 1.5527934274510000e+00 1.5349363782806140e+01 1 -2 0
2451 444 1 4.1499999999999998e-01 1.1502476519407903e+01 2.2950414679023345e+00 1.4967251200692491e+01 1 -2 0
4895 444 1 4.1499999999999998e-01 9.3122617196684772e+00 2.0460042764063804e+00 1.5383744343100526e+01 5 -4 0
4673 444 1 4.1499999999999998e-01 8.7590353007387129e+00 9.1933978914328414e+00 1.5392951828778338e+01 -4 0 0
2253 444 1 4.1499999999999998e-01 1.3273279915489452e+01 3.8018122915964119e+00 1.6012782987790981e+01 3 2 0
193 444 2 -8.2999999999999996e-01 1.0006296384946403e+01 1.1586982408522903e+01 1.0639426632887739e+01 0 -4 0
4839 444 1 4.1499999999999998e-01 1.2435483984805382e+01 1.1098720684202361e+01 1.5941115999783763e+01 -4 4 0
194 444 1 4.1499999999999998e-01 9.8416711998101007e+00 1.1484133295997474e+01 1.1576737929984517e+01 0 -4 0
2846 444 1 4.1499999999999998e-01 1.4845301847199075e+01 6.8787218655183391e-01 1.3301806841546890e+01 0 1 0
2515 444 2 -8.2999999999999996e-01 2.6006708883110213e-01 1.0181227541716108e+01 1.6923279283084320e+01 -5 2 0
4576 444 2 -8.2999999999999996e-01 7.5678698062352071e-02 8.0827768998976932e+00 1.8822645276455646e+01 1 0 0
5170 444 2 -8.2999999999999996e-01 3.0685600016426107e-01 1.6860898188909539e+00 2.0789862899405357e+01 2 0 0
849 444 1 4.1499999999999998e-01 6.8206766349410195e+00 2.7655634117203165e-01 1.7777134210972765e+01 0 1 0
1841 444 1 4.1499999999999998e-01 7.2109515782215308e+00 7.2517767808281675e-01 2.3530970167099625e+01 2 4 0
5191 444 2 -8.2999999999999996e-01 6.3218678882093571e-01 4.2988106838454305e+00 2.0196304221954414e+01 2 0 0
106 444 2 -8.2999999999999996e-01 5.8499400038825633e-01 6.5057751356983404e+00 1.6670639457084640e+01 6 0 0
4053 444 1 4.1499999999999998e-01 1.8583379360032659e+00 8.1619307129648107e+00 2.1976418207375097e+01 1 0 0
4052 444 1 4.1499999999999998e-01 2.1470567824816413e+00 7.0500228068533071e+00 2.0990417159587317e+01 1 0 0
5283 444 1 4.1499999999999998e-01 5.0157612679400678e+00 2.0836163092894884e+00 2.3612373658802472e+01 -3 0 0
108 444 1 4.1499999999999998e-01 4.7845016359447951e-01 6.9056503460605994e+00 1.7533761746537355e+01 6 0 0
2600 444 1 4.1499999999999998e-01 4.0249226719673716e+00 7.4734351474546807e+00 1.6774602746620662e+01 -1 0 0
4874 444 1 4.1499999999999998e-01 1.7153462852413741e+00 4.4047235894582357e+00 1.6636765380743086e+01 4 0 0
4873 444 2 -8.2999999999999996e-01 2.1055560225056742e+00 4.0997406905081979e+00 1.7455883284059691e+01 4 0 0
1793 444 1 4.1499999999999998e-01 3.5025695733256881e+00 4.8788281384407153e+00 1.9864768609382168e+01 -1 3 0
2599 444 2 -8.2999999999999996e-01 4.4063012992148014e+00 8.1952944429375627e+00 1.7274304017497933e+01 -1 0 0
2601 444 1 4.1499999999999998e-01 3.8055107238596877e+00 8.9273388771077347e+00 1.7135043511394883e+01 -1 0 0
3460 444 2 -8.2999999999999996e-01 2.9054472915494318e+00 1.0626630858746918e+01 2.0059427684035086e+01 2 4 0
2247 444 1 4.1499999999999998e-01 2.8381801366185671e+00 2.8867840313300879e+00 2.2771237164317061e+01 -2 -2 0
3386 444 1 4.1499999999999998e-01 5.7888621002856944e+00 6.6512148520367216e+00 2.4328408593605502e+01 4 0 0
2705 444 1 4.1499999999999998e-01 4.5003607123523146e+00 6.6065145511226957e+00 1.9870213715883974e+01 0 3 0
2704 444 2 -8.2999999999999996e-01 5.3013122753201110e+00 6.9773700485515118e+00 1.9499842755838184e+01 0 3 0
5112 444 1 4.1499999999999998e-01 1.9056613953013228e+00 1.0249751325447473e+01 1.7258865644183736e+01 2 3 0
2699 444 1 4.1499999999999998e-01 5.6479967286590229e+00 3.5373891511640143e+00 2.0149991069948648e+01 3 3 0
2698 444 2 -8.2999999999999996e-01 4.9016233836489649e+00 2.9541016329103540e+00 2.0012387770224120e+01 3 3 0
2700 444 1 4.1499999999999998e-01 5.2912828634733904e+00 2.1316099738556229e+00 1.9715899636755257e+01 3 3 0
2245 444 2 -8.2999999999999996e-01 3.2975982741331080e+00 2.1979606043445150e+00 2.2290935186198951e+01 -2 -2 0
2246 444 1 4.1499999999999998e-01 3.7704415743899302e+00 2.6617112747514380e+00 2.1599858559907421e+01 -2 -2 0
3461 444 1 4.1499999999999998e-01 2.5294176732129161e+00 9.8556425550740769e+00 2.0484176024186283e+01 2 4 0
3462 444 1 4.1499999999999998e-01 3.6613569989690902e+00 1.0854146761703284e+01 2.0600786351376595e+01 2 4 0
5843 444 1 4.1499999999999998e-01 7.0393044652399750e+00 6.4335991397983916e+00 1.8688580887852059e+01 1 -2 0
2706 444 1 4.1499999999999998e-01 5.0013632797957941e+00 7.5063546695181449e+00 1.8760628484464789e+01 0 3 0
4051 444 2 -8.2999999999999996e-01 1.8915342153519616e+00 7.9712070206729315e+00 2.1038998936669866e+01 1 0 0
4952 444 1 4.1499999999999998e-01 5.9224974724497255e+00 9.3169984995047326e+00 1.6678521753661425e+01 5 2 0
4951 444 2 -8.2999999999999996e-01 6.3981301715968026e+00 1.0072320364780673e+01 1.6332841361250320e+01 5 2 0
1792 444 2 -8.2999999999999996e-01 2.9512520331740273e+00 5.5378750417819669e+00 2.0286595598987677e+01 -1 3 0
4875 444 1 4.1499999999999998e-01 1.9927217415256233e+00 4.8315020446521153e+00 1.8062534719775773e+01 4 0 0
1794 444 1 4.1499999999999998e-01 2.0870463355435018e+00 5.1297140517242870e+00 2.0339368883664008e+01 -1 3 0