LAMMPS data file via write_data, version 11 Aug 2017, timestep = 5000000

7153 atoms
4 atom types
4000 bonds
1 bond types
2000 angles
1 angle types

0.0000000000000000e+00 4.5679949999999998e+01 xlo xhi
0.0000000000000000e+00 4.6885919999999999e+01 ylo yhi
0.0000000000000000e+00 6.5000000000000000e+01 zlo zhi

Masses

1 1.0079
2 15.9994
3 18.9984
4 107.868

Bond Coeffs # harmonic

1 450 0.9572

Angle Coeffs # harmonic

1 55 104.52

Atoms # full

6002 444 4 0.0000000000000000e+00 1.6907200000000000e+00 0.0000000000000000e+00 0.0000000000000000e+00 0 0 0
6003 444 4 0.0000000000000000e+00 4.2285000000000004e+00 1.4651900000000000e+00 0.0000000000000000e+00 0 0 0
6004 444 4 3.4700000000000000e-03 1.6907700000000001e+00 0.0000000000000000e+00 7.1781499999999996e+00 0 0 0
6005 444 4 3.4700000000000000e-03 4.2285500000000003e+00 1.4651900000000000e+00 7.1781499999999996e+00 0 0 0
6006 444 4 0.0000000000000000e+00 2.5366499999999998e+00 1.4651900000000000e+00 2.3926400000000001e+00 0 0 0
6007 444 4 0.0000000000000000e+00 5.0744199999999999e+00 0.0000000000000000e+00 2.3926400000000001e+00 0 0 0
6008 444 4 0.0000000000000000e+00 8.4509000000000001e-01 1.4651900000000000e+00 4.7824200000000001e+00 0 0 0
6009 444 4 0.0000000000000000e+00 3.3828600000000000e+00 0.0000000000000000e+00 4.7824499999999999e+00 0 0 0
6010 444 4 0.0000000000000000e+00 1.6907200000000000e+00 2.9303699999999999e+00 0.0000000000000000e+00 0 0 0
6011 444 4 0.0000000000000000e+00 4.2285000000000004e+00 4.3955599999999997e+00 0.0000000000000000e+00 0 0 0
6012 444 4 3.4700000000000000e-03 1.6907700000000001e+00 2.9303699999999999e+00 7.1781899999999998e+00 0 0 0
6013 444 4 3.4700000000000000e-03 4.2285500000000003e+00 4.3955599999999997e+00 7.1781600000000001e+00 0 0 0
6014 444 4 0.0000000000000000e+00 2.5366499999999998e+00 4.3955599999999997e+00 2.3926400000000001e+00 0 0 0
6015 444 4 0.0000000000000000e+00 5.0744199999999999e+00 2.9303699999999999e+00 2.3926400000000001e+00 0 0 0
6016 444 4 0.0000000000000000e+00 8.4509000000000001e-01 4.3955599999999997e+00 4.7824499999999999e+00 0 0 0
6017 444 4 0.0000000000000000e+00 3.3828700000000000e+00 2.9303699999999999e+00 4.7824400000000002e+00 0 0 0
6018 444 4 0.0000000000000000e+00 1.6907200000000000e+00 5.8607399999999998e+00 0.0000000000000000e+00 0 0 0
6019 444 4 0.0000000000000000e+00 4.2285000000000004e+00 7.3259299999999996e+00 0.0000000000000000e+00 0 0 0
6020 444 4 3.4700000000000000e-03 1.6907700000000001e+00 5.8607399999999998e+00 7.1781499999999996e+00 0 0 0
6021 444 4 3.4700000000000000e-03 4.2285500000000003e+00 7.3259299999999996e+00 7.1781499999999996e+00 0 0 0
6022 444 4 0.0000000000000000e+00 2.5366499999999998e+00 7.3259299999999996e+00 2.3926400000000001e+00 0 0 0
6023 444 4 0.0000000000000000e+00 5.0744199999999999e+00 5.8607399999999998e+00 2.3926400000000001e+00 0 0 0
6024 444 4 0.0000000000000000e+00 8.4509000000000001e-01 7.3259299999999996e+00 4.7824200000000001e+00 0 0 0
6025 444 4 0.0000000000000000e+00 3.3828600000000000e+00 5.8607399999999998e+00 4.7824499999999999e+00 0 0 0
6130 444 4 0.0000000000000000e+00 6.7662699999999996e+00 0.0000000000000000e+00 0.0000000000000000e+00 0 0 0
6132 444 4 3.4700000000000000e-03 6.7663200000000003e+00 0.0000000000000000e+00 7.1781499999999996e+00 0 0 0
6134 444 4 0.0000000000000000e+00 7.6121999999999996e+00 1.4651900000000000e+00 2.3926400000000001e+00 0 0 0
6136 444 4 0.0000000000000000e+00 5.9206399999999997e+00 1.4651900000000000e+00 4.7824200000000001e+00 0 0 0
6138 444 4 0.0000000000000000e+00 6.7662699999999996e+00 2.9303699999999999e+00 0.0000000000000000e+00 0 0 0
6140 444 4 3.4700000000000000e-03 6.7663200000000003e+00 2.9303699999999999e+00 7.1781899999999998e+00 0 0 0
6142 444 4 0.0000000000000000e+00 7.6121999999999996e+00 4.3955599999999997e+00 2.3926400000000001e+00 0 0 0
6144 444 4 0.0000000000000000e+00 5.9206399999999997e+00 4.3955599999999997e+00 4.7824499999999999e+00 0 0 0
6146 444 4 0.0000000000000000e+00 6.7662699999999996e+00 5.8607399999999998e+00 0.0000000000000000e+00 0 0 0
6148 444 4 3.4700000000000000e-03 6.7663200000000003e+00 5.8607399999999998e+00 7.1781499999999996e+00 0 0 0
6150 444 4 0.0000000000000000e+00 7.6121999999999996e+00 7.3259299999999996e+00 2.3926400000000001e+00 0 0 0
6152 444 4 0.0000000000000000e+00 5.9206399999999997e+00 7.3259299999999996e+00 4.7824200000000001e+00 0 0 0
6026 444 4 0.0000000000000000e+00 1.6907200000000000e+00 8.7911099999999998e+00 0.0000000000000000e+00 0 0 0
6027 444 4 0.0000000000000000e+00 4.2285000000000004e+00 1.0256300000000000e+01 0.0000000000000000e+00 0 0 0
6028 444 4 3.4700000000000000e-03 1.6907700000000001e+00 8.7911099999999998e+00 7.1781899999999998e+00 0 0 0
6029 444 4 3.4700000000000000e-03 4.2285500000000003e+00 1.0256300000000000e+01 7.1781600000000001e+00 0 0 0
6030 444 4 0.0000000000000000e+00 2.5366499999999998e+00 1.0256300000000000e+01 2.3926400000000001e+00 0 0 0
6031 444 4 0.0000000000000000e+00 5.0744199999999999e+00 8.7911099999999998e+00 2.3926400000000001e+00 0 0 0
6032 444 4 0.0000000000000000e+00 8.4509000000000001e-01 1.0256300000000000e+01 4.7824499999999999e+00 0 0 0
6033 444 4 0.0000000000000000e+00 3.3828700000000000e+00 8.7911099999999998e+00 4.7824400000000002e+00 0 0 0
6154 444 4 0.0000000000000000e+00 6.7662699999999996e+00 8.7911099999999998e+00 0.0000000000000000e+00 0 0 0
6156 444 4 3.4700000000000000e-03 6.7663200000000003e+00 8.7911099999999998e+00 7.1781899999999998e+00 0 0 0
6158 444 4 0.0000000000000000e+00 7.6121999999999996e+00 1.0256300000000000e+01 2.3926400000000001e+00 0 0 0
6160 444 4 0.0000000000000000e+00 5.9206399999999997e+00 1.0256300000000000e+01 4.7824499999999999e+00 0 0 0
6131 444 4 0.0000000000000000e+00 9.3040500000000002e+00 1.4651900000000000e+00 0.0000000000000000e+00 0 0 0
6133 444 4 3.4700000000000000e-03 9.3041000000000000e+00 1.4651900000000000e+00 7.1781499999999996e+00 0 0 0
6135 444 4 0.0000000000000000e+00 1.0149970000000000e+01 0.0000000000000000e+00 2.3926400000000001e+00 0 0 0
6137 444 4 0.0000000000000000e+00 8.4584100000000007e+00 0.0000000000000000e+00 4.7824499999999999e+00 0 0 0
6139 444 4 0.0000000000000000e+00 9.3040500000000002e+00 4.3955599999999997e+00 0.0000000000000000e+00 0 0 0
6141 444 4 3.4700000000000000e-03 9.3041000000000000e+00 4.3955599999999997e+00 7.1781600000000001e+00 0 0 0
6143 444 4 0.0000000000000000e+00 1.0149970000000000e+01 2.9303699999999999e+00 2.3926400000000001e+00 0 0 0
6145 444 4 0.0000000000000000e+00 8.4584200000000003e+00 2.9303699999999999e+00 4.7824400000000002e+00 0 0 0
6147 444 4 0.0000000000000000e+00 9.3040500000000002e+00 7.3259299999999996e+00 0.0000000000000000e+00 0 0 0
6149 444 4 3.4700000000000000e-03 9.3041000000000000e+00 7.3259299999999996e+00 7.1781499999999996e+00 0 0 0
6151 444 4 0.0000000000000000e+00 1.0149970000000000e+01 5.8607399999999998e+00 2.3926400000000001e+00 0 0 0
6153 444 4 0.0000000000000000e+00 8.4584100000000007e+00 5.8607399999999998e+00 4.7824499999999999e+00 0 0 0
6264 444 4 0.0000000000000000e+00 1.0996190000000000e+01 1.4651900000000000e+00 4.7824200000000001e+00 0 0 0
6272 444 4 0.0000000000000000e+00 1.0996190000000000e+01 4.3955599999999997e+00 4.7824499999999999e+00 0 0 0
6280 444 4 0.0000000000000000e+00 1.0996190000000000e+01 7.3259299999999996e+00 4.7824200000000001e+00 0 0 0
6155 444 4 0.0000000000000000e+00 9.3040500000000002e+00 1.0256300000000000e+01 0.0000000000000000e+00 0 0 0
6157 444 4 3.4700000000000000e-03 9.3041000000000000e+00 1.0256300000000000e+01 7.1781600000000001e+00 0 0 0
6159 444 4 0.0000000000000000e+00 1.0149970000000000e+01 8.7911099999999998e+00 2.3926400000000001e+00 0 0 0
6161 444 4 0.0000000000000000e+00 8.4584200000000003e+00 8.7911099999999998e+00 4.7824400000000002e+00 0 0 0
6288 444 4 0.0000000000000000e+00 1.0996190000000000e+01 1.0256300000000000e+01 4.7824499999999999e+00 0 0 0
6258 444 4 0.0000000000000000e+00 1.1841820000000000e+01 0.0000000000000000e+00 0.0000000000000000e+00 0 0 0
6259 444 4 0.0000000000000000e+00 1.4379600000000000e+01 1.4651900000000000e+00 0.0000000000000000e+00 0 0 0
6260 444 4 3.4700000000000000e-03 1.1841870000000000e+01 0.0000000000000000e+00 7.1781499999999996e+00 0 0 0
6261 444 4 3.4700000000000000e-03 1.4379650000000000e+01 1.4651900000000000e+00 7.1781499999999996e+00 0 0 0
6262 444 4 0.0000000000000000e+00 1.2687749999999999e+01 1.4651900000000000e+00 2.3926400000000001e+00 0 0 0
6263 444 4 0.0000000000000000e+00 1.5225519999999999e+01 0.0000000000000000e+00 2.3926400000000001e+00 0 0 0
6265 444 4 0.0000000000000000e+00 1.3533960000000000e+01 0.0000000000000000e+00 4.7824499999999999e+00 0 0 0
6266 444 4 0.0000000000000000e+00 1.1841820000000000e+01 2.9303699999999999e+00 0.0000000000000000e+00 0 0 0
6267 444 4 0.0000000000000000e+00 1.4379600000000000e+01 4.3955599999999997e+00 0.0000000000000000e+00 0 0 0
6268 444 4 3.4700000000000000e-03 1.1841870000000000e+01 2.9303699999999999e+00 7.1781899999999998e+00 0 0 0
6269 444 4 3.4700000000000000e-03 1.4379650000000000e+01 4.3955599999999997e+00 7.1781600000000001e+00 0 0 0
6270 444 4 0.0000000000000000e+00 1.2687749999999999e+01 4.3955599999999997e+00 2.3926400000000001e+00 0 0 0
6271 444 4 0.0000000000000000e+00 1.5225519999999999e+01 2.9303699999999999e+00 2.3926400000000001e+00 0 0 0
6273 444 4 0.0000000000000000e+00 1.3533970000000000e+01 2.9303699999999999e+00 4.7824400000000002e+00 0 0 0
6274 444 4 0.0000000000000000e+00 1.1841820000000000e+01 5.8607399999999998e+00 0.0000000000000000e+00 0 0 0
6275 444 4 0.0000000000000000e+00 1.4379600000000000e+01 7.3259299999999996e+00 0.0000000000000000e+00 0 0 0
6276 444 4 3.4700000000000000e-03 1.1841870000000000e+01 5.8607399999999998e+00 7.1781499999999996e+00 0 0 0
6277 444 4 3.4700000000000000e-03 1.4379650000000000e+01 7.3259299999999996e+00 7.1781499999999996e+00 0 0 0
6278 444 4 0.0000000000000000e+00 1.2687749999999999e+01 7.3259299999999996e+00 2.3926400000000001e+00 0 0 0
6279 444 4 0.0000000000000000e+00 1.5225519999999999e+01 5.8607399999999998e+00 2.3926400000000001e+00 0 0 0
6281 444 4 0.0000000000000000e+00 1.3533960000000000e+01 5.8607399999999998e+00 4.7824499999999999e+00 0 0 0
6282 444 4 0.0000000000000000e+00 1.1841820000000000e+01 8.7911099999999998e+00 0.0000000000000000e+00 0 0 0
6283 444 4 0.0000000000000000e+00 1.4379600000000000e+01 1.0256300000000000e+01 0.0000000000000000e+00 0 0 0
6284 444 4 3.4700000000000000e-03 1.1841870000000000e+01 8.7911099999999998e+00 7.1781899999999998e+00 0 0 0
6285 444 4 3.4700000000000000e-03 1.4379650000000000e+01 1.0256300000000000e+01 7.1781600000000001e+00 0 0 0
6286 444 4 0.0000000000000000e+00 1.2687749999999999e+01 1.0256300000000000e+01 2.3926400000000001e+00 0 0 0
6287 444 4 0.0000000000000000e+00 1.5225519999999999e+01 8.7911099999999998e+00 2.3926400000000001e+00 0 0 0
6289 444 4 0.0000000000000000e+00 1.3533970000000000e+01 8.7911099999999998e+00 4.7824400000000002e+00 0 0 0
2608 444 2 -8.2999999999999996e-01 7.0236223783179046e+00 3.7823119740954110e+00 1.0084932384866031e+01 -1 -1 0
2610 444 1 4.1499999999999998e-01 6.5514495827832997e+00 4.5134076176187143e+00 1.0483409864279652e+01 -1 -1 0
3821 444 1 4.1499999999999998e-01 3.4073410387205363e+00 4.9628042245244401e+00 1.2620131427271419e+01 0 -3 0
3822 444 1 4.1499999999999998e-01 3.2428881348196046e+00 4.0848806689731711e+00 1.3842466075353265e+01 0 -3 0
3820 444 2 -8.2999999999999996e-01 3.2230395059452821e+00 4.9988461806506193e+00 1.3558729407085188e+01 0 -3 0
1018 444 2 -8.2999999999999996e-01 5.3259913164391879e+00 1.8404985894536126e+00 1.0455370342171555e+01 -3 4 0
5494 444 2 -8.2999999999999996e-01 3.3723348564907347e+00 1.0365014834773106e+01 1.1056281159977527e+01 2 0 0
2296 444 2 -8.2999999999999996e-01 4.1122814749221241e+00 5.6462631861960375e+00 1.0883278972540824e+01 -1 -1 0
4674 444 1 4.1499999999999998e-01 1.1712793570386517e+00 6.1932203220659543e-01 1.0497467703211242e+01 1 4 0
2297 444 1 4.1499999999999998e-01 5.0190439734766796e+00 5.9354552034476713e+00 1.0781381166814032e+01 -1 -1 0
950 444 1 4.1499999999999998e-01 4.2530907042500639e+00 1.0517358857246495e+00 1.1814196955311491e+01 -1 0 0
2298 444 1 4.1499999999999998e-01 3.5958402708471939e+00 6.4499186882754858e+00 1.0822790017737889e+01 -1 -1 0
3764 444 1 4.1499999999999998e-01 2.3189233445243294e+00 7.6944512695147456e+00 9.8009472128744708e+00 -3 3 0
1207 444 2 -8.2999999999999996e-01 1.6700773000174593e-01 5.5815971127343271e+00 1.3105138297701510e+01 5 -2 0
3765 444 1 4.1499999999999998e-01 1.4276827156394376e+00 8.0014499199547693e+00 1.0985572693818455e+01 -3 3 0
1208 444 1 4.1499999999999998e-01 1.0493586590386734e+00 5.9525340163896088e+00 1.3114874737332192e+01 5 -2 0
1602 444 1 4.1499999999999998e-01 3.2783145900731334e+00 2.6370803961565987e+00 1.0357129146619330e+01 1 4 0
4673 444 1 4.1499999999999998e-01 2.5087065761446108e+00 2.9353034755346863e-01 1.1127581511544392e+01 1 4 0
3763 444 2 -8.2999999999999996e-01 2.3298075458309455e+00 7.7803599616415919e+00 1.0754222264796137e+01 -3 3 0
5496 444 1 4.1499999999999998e-01 2.8644545279772546e+00 1.1039052945627274e+01 1.1507903848281471e+01 2 0 0
1601 444 1 4.1499999999999998e-01 3.2364234024570813e+00 4.1302149592554427e+00 1.0110776570143091e+01 1 4 0
1600 444 2 -8.2999999999999996e-01 2.6858017098017943e+00 3.3472407727125697e+00 1.0110484722070277e+01 1 4 0
2552 444 1 4.1499999999999998e-01 2.6065254092174888e+00 1.8440430898176605e+00 1.4922945934410938e+01 -1 -2 0
2553 444 1 4.1499999999999998e-01 3.2699954682243493e+00 1.7508453165450997e+00 1.3565368328599272e+01 -1 -2 0
1920 444 1 4.1499999999999998e-01 5.5692035347977651e+00 1.0138368209262662e+01 1.4120631072564699e+01 -4 2 0
1918 444 2 -8.2999999999999996e-01 5.5412271281984831e+00 9.2051138559978529e+00 1.3909713645789754e+01 -4 2 0
5495 444 1 4.1499999999999998e-01 2.8621828456292859e+00 9.5632025997736285e+00 1.1170625697082643e+01 2 0 0
2551 444 2 -8.2999999999999996e-01 3.0515457092375216e+00 2.3720494469356104e+00 1.4260074743081082e+01 -1 -2 0
1919 444 1 4.1499999999999998e-01 4.6124070392384207e+00 8.9774765154321212e+00 1.3951024274764244e+01 -4 2 0
5258 444 1 4.1499999999999998e-01 2.9793682295095597e-01 1.0299790412379751e+01 1.4964954293150623e+01 -2 -3 0
1209 444 1 4.1499999999999998e-01 1.2969752994068476e-01 5.0305423802031779e+00 1.3886917503913660e+01 5 -2 0
4232 444 1 4.1499999999999998e-01 6.3492646753703976e+00 7.4401243384709144e+00 1.4458799699443830e+01 -2 -1 0
4864 444 2 -8.2999999999999996e-01 2.7547055554476518e-01 1.9405606839831624e+00 1.0436002247688814e+01 5 1 0
2619 444 1 4.1499999999999998e-01 1.2360636047146980e+00 4.6151948713114557e+00 1.0086863966330434e+01 5 -3 0
2617 444 2 -8.2999999999999996e-01 3.3103049455339817e-01 4.9058166613584868e+00 1.0199498474540363e+01 5 -3 0
2618 444 1 4.1499999999999998e-01 1.0948064576308178e-01 4.6583805124572262e+00 1.1097230829413567e+01 5 -3 0
4064 444 1 4.1499999999999998e-01 6.9904597766746086e+00 1.0095402048543088e+01 1.1460369895411500e+01 4 1 0
5257 444 2 -8.2999999999999996e-01 8.9526065461655507e-02 9.7647014110332631e+00 1.5730771932741467e+01 -2 -3 0
1973 444 1 4.1499999999999998e-01 6.9737496724457892e-01 8.1835006529423922e+00 1.5599688379622190e+01 -2 -2 0
3130 444 2 -8.2999999999999996e-01 9.3599086281774646e-01 1.1222021910221006e+01 1.3604998750021839e+01 1 -2 0
4203 444 1 4.1499999999999998e-01 6.5532293850620764e+00 2.1793726889646457e-02 1.4472390214392036e+01 1 -2 0
5117 444 1 4.1499999999999998e-01 6.7572002477044872e+00 7.3439727737380398e+00 1.0394741026464517e+01 2 0 0
4231 444 2 -8.2999999999999996e-01 6.9731917378720327e+00 6.8648657477198469e+00 1.4901547162148052e+01 -2 -1 0
5105 444 1 4.1499999999999998e-01 6.6222831365776580e+00 3.1538991765061337e+00 1.5930561626426547e+01 3 2 0
5106 444 1 4.1499999999999998e-01 6.0636478869165051e+00 3.6774547570069154e+00 1.4624532724744805e+01 3 2 0
5104 444 2 -8.2999999999999996e-01 6.5869837140980954e+00 2.9655710019616603e+00 1.4992735189869073e+01 3 2 0
4065 444 1 4.1499999999999998e-01 6.1445722094864843e+00 8.8458378238962592e+00 1.1338063838587612e+01 4 1 0
2580 444 1 4.1499999999999998e-01 3.4511345310523804e+00 5.9947210959574395e+00 1.4849476507809868e+01 -1 -2 0
1972 444 2 -8.2999999999999996e-01 6.3245925459305530e-01 7.2343525049874264e+00 1.5494162741413025e+01 -2 -2 0
3131 444 1 4.1499999999999998e-01 4.2511517705759305e-01 1.1345211673512130e+01 1.2804959796376238e+01 1 -2 0
1019 444 1 4.1499999999999998e-01 5.8358751719120328e+00 1.1178865757543728e+00 1.0089197971329629e+01 -3 4 0
5116 444 2 -8.2999999999999996e-01 6.6061249433137137e+00 6.4020364153774825e+00 1.0473252352976926e+01 2 0 0
5118 444 1 4.1499999999999998e-01 7.4660717839903556e+00 6.0377181595184828e+00 1.0683003818049052e+01 2 0 0
4063 444 2 -8.2999999999999996e-01 6.9997051402976336e+00 9.2069092213861641e+00 1.1104381325232369e+01 4 1 0
949 444 2 -8.2999999999999996e-01 3.6913383817505143e+00 4.7931015749085554e-01 1.2336687455425741e+01 -1 0 0
4201 444 2 -8.2999999999999996e-01 6.4779293410331213e+00 3.8920433424803093e-02 1.5426470343171916e+01 1 -2 0
4202 444 1 4.1499999999999998e-01 6.2775818381519466e+00 9.5138304379526450e-01 1.5635049830302396e+01 1 -2 0
2579 444 1 4.1499999999999998e-01 2.5117171875512940e+00 6.4336139260806586e+00 1.5952546509174246e+01 -1 -2 0
4866 444 1 4.1499999999999998e-01 9.0596462230798569e-01 2.6235121624333133e+00 1.0207339810547762e+01 5 1 0
2578 444 2 -8.2999999999999996e-01 3.4405833210952301e+00 6.3294071131729090e+00 1.5746196002431505e+01 -1 -2 0
5452 444 2 -8.2999999999999996e-01 1.5723848437354033e+00 5.7878209676547132e-01 1.5880788754854292e+01 2 -3 0
5453 444 1 4.1499999999999998e-01 6.9622833042788879e-01 9.6263898390912650e-01 1.5915939021510013e+01 2 -3 0
2307 444 1 4.1499999999999998e-01 5.6227676533779807e+00 1.1346825185355810e+01 1.5870294026570843e+01 3 2 0
1020 444 1 4.1499999999999998e-01 5.8005236267269025e+00 2.6280608616733643e+00 1.0189293869880213e+01 -3 4 0
2209 444 2 -8.2999999999999996e-01 5.4582131344232820e+00 1.1574799259444051e+01 1.0455274915099100e+01 0 -2 0
2210 444 1 4.1499999999999998e-01 4.8492035553170147e+00 1.0854183198684286e+01 1.0616680356748711e+01 0 -2 0
4505 444 1 4.1499999999999998e-01 1.5568974367453037e+00 1.4994518757842940e-01 1.3751866368161810e+01 0 -1 0
4504 444 2 -8.2999999999999996e-01 6.4160087527903820e-01 1.5944553421744723e-01 1.3471912452920952e+01 0 -1 0
5123 444 1 4.1499999999999998e-01 4.6517117778691386e-02 1.8184245658919511e+00 1.3097393908587991e+01 0 -2 0
2218 444 2 -8.2999999999999996e-01 6.9932418089983290e+00 1.1702844910383670e+01 1.2586892695963241e+01 2 1 0
2220 444 1 4.1499999999999998e-01 6.2835493938830522e+00 1.1711412639072810e+01 1.1944633767755382e+01 2 1 0
5913 444 1 4.1499999999999998e-01 9.5688927490044762e+00 1.1609170573813318e+01 1.3902210883239485e+01 -1 0 0
2609 444 1 4.1499999999999998e-01 7.8976872194693337e+00 4.1295779895108122e+00 9.9070295140749138e+00 -1 -1 0
4218 444 1 4.1499999999999998e-01 1.0911198031566892e+01 3.6391582956679738e+00 9.7682695128953938e+00 -1 0 0
4216 444 2 -8.2999999999999996e-01 1.0012695032559638e+01 3.4637604530400763e+00 1.0047841164655765e+01 -1 0 0
4217 444 1 4.1499999999999998e-01 9.9061933873816557e+00 2.5192594382039331e+00 9.9346664234170117e+00 -1 0 0
1595 444 1 4.1499999999999998e-01 8.9912470645293112e+00 7.6107965846901502e+00 1.2588025497349882e+01 -2 -2 0
5129 444 1 4.1499999999999998e-01 8.2350349993931697e+00 2.5787850047703205e+00 1.3393593656708376e+01 -1 -3 0
1596 444 1 4.1499999999999998e-01 1.0016860115066610e+01 8.2640214305584045e+00 1.3489862773226596e+01 -2 -2 0
1594 444 2 -8.2999999999999996e-01 9.1015018519973516e+00 7.9855082172761866e+00 1.3461905904731134e+01 -2 -2 0
5128 444 2 -8.2999999999999996e-01 8.5300449300343910e+00 2.3151199334955748e+00 1.2521996249475592e+01 -1 -3 0
5130 444 1 4.1499999999999998e-01 7.8728204878143391e+00 2.6758319580135921e+00 1.1926870167597132e+01 -1 -3 0
5873 444 1 4.1499999999999998e-01 1.2889700280583087e+01 2.8450741474191146e+00 1.0389963277024245e+01 2 2 0
5872 444 2 -8.2999999999999996e-01 1.2448811684700649e+01 2.0000338963936950e+00 1.0478032028104511e+01 2 2 0
5874 444 1 4.1499999999999998e-01 1.1970473859372451e+01 2.0639121313683346e+00 1.1304678517184865e+01 2 2 0
3314 444 1 4.1499999999999998e-01 9.3856179371229445e+00 6.3666190460422918e+00 1.0760002992750202e+01 2 1 0
3315 444 1 4.1499999999999998e-01 9.5995764356235913e+00 4.8751731173305295e+00 1.0612673144753563e+01 2 1 0
3313 444 2 -8.2999999999999996e-01 8.9656173326373221e+00 5.5219700402526586e+00 1.0922481958262976e+01 2 1 0
4621 444 2 -8.2999999999999996e-01 1.3197051091648166e+01 4.7465257900130178e+00 1.0287751775007219e+01 -2 3 0
4623 444 1 4.1499999999999998e-01 1.2723212651080409e+01 5.5478380439487092e+00 1.0065023875859831e+01 -2 3 0
4622 444 1 4.1499999999999998e-01 1.4046933931375623e+01 5.0508776411787659e+00 1.0606029969756264e+01 -2 3 0
2500 444 2 -8.2999999999999996e-01 9.4178257877773781e+00 8.1867702500531596e+00 1.0453020277205873e+01 0 5 0
2515 444 2 -8.2999999999999996e-01 1.1307219937608620e+01 2.3103241650148894e+00 1.2761285718826903e+01 0 -1 0
2502 444 1 4.1499999999999998e-01 9.7888063554464591e+00 9.0652128501639595e+00 1.0369689750846002e+01 0 5 0
2516 444 1 4.1499999999999998e-01 1.1405762295513590e+01 2.0986372753043288e+00 1.3689569506479927e+01 0 -1 0
2501 444 1 4.1499999999999998e-01 8.5073175000665628e+00 8.3340689610275174e+00 1.0708968850552818e+01 0 5 0
4369 444 2 -8.2999999999999996e-01 9.2085080648820057e+00 9.2316540162663463e-01 1.0297498102649437e+01 1 3 0
2517 444 1 4.1499999999999998e-01 1.0391377348630062e+01 2.5736306457778251e+00 1.2671090243001109e+01 0 -1 0
910 444 2 -8.2999999999999996e-01 1.2132378740831053e+01 7.1556812246181742e+00 9.9655705612878638e+00 0 1 0
912 444 1 4.1499999999999998e-01 1.1295834235759292e+01 7.5137579202356140e+00 1.0262566169003366e+01 0 1 0
660 444 1 4.1499999999999998e-01 1.1242569911453986e+01 9.4741034270651010e+00 1.2235280865574572e+01 1 1 0
658 444 2 -8.2999999999999996e-01 1.1357388848866636e+01 9.1615027995771463e+00 1.3132682639942351e+01 1 1 0
659 444 1 4.1499999999999998e-01 1.2224429141361529e+01 8.7559657557166908e+00 1.3136461719607443e+01 1 1 0
4233 444 1 4.1499999999999998e-01 7.8220345657981394e+00 7.0957939068435767e+00 1.4524226519216233e+01 -2 -1 0
865 444 2 -8.2999999999999996e-01 1.3540502886299212e+01 1.0702573220317417e+01 1.5542053243657911e+01 1 -3 0
867 444 1 4.1499999999999998e-01 1.2761760565547059e+01 1.0519457350734067e+01 1.6067659585499388e+01 1 -3 0
2339 444 1 4.1499999999999998e-01 1.3689905578461138e+01 8.3536275950292218e+00 1.1946365333366357e+01 -3 5 0
2338 444 2 -8.2999999999999996e-01 1.3543131040057542e+01 7.8609669787473324e+00 1.2753814833794351e+01 -3 5 0
987 444 1 4.1499999999999998e-01 1.3074611843846920e+01 4.6132736431848764e+00 1.1988909503682684e+01 7 -4 0
911 444 1 4.1499999999999998e-01 1.2756758636654837e+01 7.8706694503599106e+00 1.0088756000347699e+01 0 1 0
1301 444 1 4.1499999999999998e-01 1.4548173543701179e+01 8.8061455169637313e+00 1.5706765552896865e+01 1 3 0
5662 444 2 -8.2999999999999996e-01 1.0573823683179013e+01 2.3270207697154763e+00 1.5692383375123352e+01 -2 -1 0
2925 444 1 4.1499999999999998e-01 1.0511732815264516e+01 1.0117139510217784e+01 1.5863649066547687e+01 5 0 0
985 444 2 -8.2999999999999996e-01 1.3136659837086093e+01 4.4458317098799238e+00 1.2929306183080751e+01 7 -4 0
866 444 1 4.1499999999999998e-01 1.3221648648131730e+01 1.1247107686688071e+01 1.4822298746701406e+01 1 -3 0
2340 444 1 4.1499999999999998e-01 1.4336933367817277e+01 7.3373643136859394e+00 1.2863130982705680e+01 -3 5 0
1010 444 1 4.1499999999999998e-01 1.1472731762843148e+01 1.1176281998203120e+01 1.0594482091781225e+01 0 5 0
383 444 1 4.1499999999999998e-01 1.2887250369052648e+01 7.1452595889562511e+00 1.4514461487897529e+01 3 6 0
986 444 1 4.1499999999999998e-01 1.2607197950087469e+01 3.6606769990628414e+00 1.3068714772020453e+01 7 -4 0
382 444 2 -8.2999999999999996e-01 1.2872013586828007e+01 6.4943375072605818e+00 1.5216102988605948e+01 3 6 0
5155 444 2 -8.2999999999999996e-01 1.3994660415508516e+01 8.9551903611074710e+00 1.0383620958856886e+01 -2 0 0
5157 444 1 4.1499999999999998e-01 1.3811135407649818e+01 9.8940928570233488e+00 1.0351785522103924e+01 -2 0 0
1009 444 2 -8.2999999999999996e-01 1.0784719911836001e+01 1.0546397878162551e+01 1.0809234027478700e+01 0 5 0
1302 444 1 4.1499999999999998e-01 1.5084142998112345e+01 7.3909363898638949e+00 1.5749371488870414e+01 1 3 0
4370 444 1 4.1499999999999998e-01 8.9412519342858765e+00 1.4027728162025885e+00 1.1081578961856739e+01 1 3 0
5294 444 1 4.1499999999999998e-01 1.4130937342468384e+01 4.0855970266489479e+00 1.4530625614959963e+01 -3 3 0
2399 444 1 4.1499999999999998e-01 7.7752910345757886e+00 1.0580351736374539e+01 1.4688440012429661e+01 -2 -3 0
2400 444 1 4.1499999999999998e-01 8.8282776133154215e+00 9.5629383952073823e+00 1.4303752058160171e+01 -2 -3 0
2398 444 2 -8.2999999999999996e-01 8.7202041710579010e+00 1.0473196471882600e+01 1.4579402436151680e+01 -2 -3 0
5664 444 1 4.1499999999999998e-01 9.7863428369854066e+00 2.8283002254575624e+00 1.5904101957657927e+01 -2 -1 0
384 444 1 4.1499999999999998e-01 1.2034499736472389e+01 6.0438091557062821e+00 1.5107351545041917e+01 3 6 0
5663 444 1 4.1499999999999998e-01 1.0338973451838880e+01 1.4190170539856999e+00 1.5883712368696029e+01 -2 -1 0
2744 444 1 4.1499999999999998e-01 8.5842547319535800e+00 6.3467314867077684e+00 1.6249903485154860e+01 0 1 0
4371 444 1 4.1499999999999998e-01 8.4322185384076640e+00 4.2282426083127816e-01 1.0045972323303063e+01 1 3 0
2385 444 1 4.1499999999999998e-01 1.3997472045947514e+01 6.5328421551048454e-02 1.1846670112255561e+01 -1 1 0
5295 444 1 4.1499999999999998e-01 1.3786189111294386e+01 5.1134994611047979e+00 1.5587252594609586e+01 -3 3 0
5293 444 2 -8.2999999999999996e-01 1.4301881987395918e+01 4.3201419606768514e+00 1.5442765163012300e+01 -3 3 0
3289 444 2 -8.2999999999999996e-01 1.3492122817694707e+01 1.1672219283381809e+01 9.9616154124465286e+00 1 0 0
2384 444 1 4.1499999999999998e-01 1.3517087246754956e+01 7.4397452734760905e-01 1.0581535636163213e+01 -1 1 0
5156 444 1 4.1499999999999998e-01 1.4887497247414419e+01 8.8736781966625724e+00 1.0048314432557547e+01 -2 0 0
1011 444 1 4.1499999999999998e-01 9.9749655717908414e+00 1.0968180341048853e+01 1.0521778497644865e+01 0 5 0
5912 444 1 4.1499999999999998e-01 1.0261511605864746e+01 1.1573474754928444e+01 1.2556513982292548e+01 -1 0 0
3290 444 1 4.1499999999999998e-01 1.4374620701735969e+01 1.1520342163089666e+01 1.0299791015632190e+01 1 0 0
4710 444 1 4.1499999999999998e-01 9.6203163932222635e-01 8.9452420265696109e+00 2.3052517734356343e+01 -4 3 0
162 444 1 4.1499999999999998e-01 4.9221893339625513e+00 9.7572346822906963e-01 1.9096137809539957e+01 0 1 0
2897 444 1 4.1499999999999998e-01 6.0242969067527614e+00 7.4992215896743160e+00 1.6671232833292297e+01 -4 1 0
4088 444 1 4.1499999999999998e-01 1.4226592367691331e+00 3.4409732962481385e+00 2.4127027838388933e+01 2 3 0
5204 444 1 4.1499999999999998e-01 5.8258568211379149e+00 6.4692670291485808e+00 1.9681644249769302e+01 0 -1 0
2898 444 1 4.1499999999999998e-01 4.5265248780182956e+00 7.2921552140683534e+00 1.6746715910631266e+01 -4 1 0
144 444 1 4.1499999999999998e-01 3.5806347974391541e+00 3.1216366681973357e-01 2.0617658959364110e+01 -2 3 0
4087 444 2 -8.2999999999999996e-01 1.6711320116578532e+00 2.5280258441013417e+00 2.3982044432156844e+01 2 3 0
843 444 1 4.1499999999999998e-01 5.6858738776023388e-01 1.0158572329842046e+01 1.8725851320912323e+01 0 -2 0
841 444 2 -8.2999999999999996e-01 9.6178191887884312e-01 9.3700986423141295e+00 1.8351765334206778e+01 0 -2 0
842 444 1 4.1499999999999998e-01 7.5621104757219171e-01 9.4191728429335164e+00 1.7418188794757633e+01 0 -2 0
4691 444 1 4.1499999999999998e-01 8.0205625364381561e-01 3.6453794564239006e+00 2.1433934037663622e+01 2 0 0
3537 444 1 4.1499999999999998e-01 7.2217341470207410e+00 4.8580966574932749e-01 2.1235458289988475e+01 0 4 0
2738 444 1 4.1499999999999998e-01 5.0849124790569453e+00 9.6110847700595041e+00 2.0177281767912714e+01 1 2 0
5205 444 1 4.1499999999999998e-01 6.9438896434387525e+00 5.5137851711510928e+00 2.0040745292390177e+01 0 -1 0
227 444 1 4.1499999999999998e-01 3.4413192984342822e+00 1.0301481317514083e+01 1.8986447950832041e+01 1 0 0
226 444 2 -8.2999999999999996e-01 3.4143193932310898e+00 9.8657905227064546e+00 1.9838314758901252e+01 1 0 0
5092 444 2 -8.2999999999999996e-01 3.9695922001707489e+00 1.2895513786651660e+00 2.1937673065280215e+01 0 -1 0
5093 444 1 4.1499999999999998e-01 4.8881055732533945e+00 1.0316535761714978e+00 2.1859861466608120e+01 0 -1 0
171 444 1 4.1499999999999998e-01 7.0012177313847577e+00 2.5716288525622031e+00 2.2277072290541277e+01 3 -1 0
3761 444 1 4.1499999999999998e-01 3.3994782559041603e+00 5.4119825119853404e+00 1.7436456408379378e+01 0 0 0
5094 444 1 4.1499999999999998e-01 3.8867094859590638e+00 1.6145974317224197e+00 2.2834170448305361e+01 0 -1 0
2896 444 2 -8.2999999999999996e-01 5.2499348570028612e+00 7.7498473495563012e+00 1.7175000635121375e+01 -4 1 0
3760 444 2 -8.2999999999999996e-01 3.5147270877448107e+00 5.1771586495563042e+00 1.8357221159862679e+01 0 0 0
3762 444 1 4.1499999999999998e-01 4.4559896470385807e+00 5.0310632117062246e+00 1.8451631023382227e+01 0 0 0
4263 444 1 4.1499999999999998e-01 7.3191327960739718e+00 8.2755600121142496e+00 2.0515881341455309e+01 3 2 0
2917 444 2 -8.2999999999999996e-01 5.5754426220934832e+00 1.0443869507447390e+01 1.7333349713486292e+01 3 -3 0
5432 444 1 4.1499999999999998e-01 7.6111582296470797e+00 1.0680233360643347e+01 1.9799924527598289e+01 0 3 0
2918 444 1 4.1499999999999998e-01 5.3711573633126424e+00 9.5088674653056398e+00 1.7349804758380127e+01 3 -3 0
4759 444 2 -8.2999999999999996e-01 1.8649829556543112e+00 4.9539810955544885e+00 2.0633077258029587e+01 1 4 0