LAMMPS data file via write_data, version 11 Aug 2017, timestep = 5000000

7172 atoms
4 atom types
4000 bonds
1 bond types
2000 angles
1 angle types

0.0000000000000000e+00 4.5679949999999998e+01 xlo xhi
0.0000000000000000e+00 4.6885919999999999e+01 ylo yhi
0.0000000000000000e+00 6.5000000000000000e+01 zlo zhi

Masses

1 1.0079
2 15.9994
3 18.9984
4 107.868

Bond Coeffs # harmonic

1 450 0.9572

Angle Coeffs # harmonic

1 55 104.52

Atoms # full

6021 444 4 0.0000000000000000e+00 1.6907200000000000e+00 0.0000000000000000e+00 0.0000000000000000e+00 0 0 0
6022 444 4 0.0000000000000000e+00 4.2285000000000004e+00 1.4651900000000000e+00 0.0000000000000000e+00 0 0 0
6023 444 4 7.0720000000000005e-02 1.6907700000000001e+00 0.0000000000000000e+00 7.1781499999999996e+00 0 0 0
6024 444 4 6.9440000000000002e-02 4.2285500000000003e+00 1.4651900000000000e+00 7.1781499999999996e+00 0 0 0
6025 444 4 0.0000000000000000e+00 2.5366499999999998e+00 1.4651900000000000e+00 2.3926400000000001e+00 0 0 0
6026 444 4 0.0000000000000000e+00 5.0744199999999999e+00 0.0000000000000000e+00 2.3926400000000001e+00 0 0 0
6027 444 4 0.0000000000000000e+00 8.4509000000000001e-01 1.4651900000000000e+00 4.7824200000000001e+00 0 0 0
6028 444 4 0.0000000000000000e+00 3.3828600000000000e+00 0.0000000000000000e+00 4.7824499999999999e+00 0 0 0
6029 444 4 0.0000000000000000e+00 1.6907200000000000e+00 2.9303699999999999e+00 0.0000000000000000e+00 0 0 0
6030 444 4 0.0000000000000000e+00 4.2285000000000004e+00 4.3955599999999997e+00 0.0000000000000000e+00 0 0 0
6031 444 4 6.9440000000000002e-02 1.6907700000000001e+00 2.9303699999999999e+00 7.1781899999999998e+00 0 0 0
6032 444 4 6.9440000000000002e-02 4.2285500000000003e+00 4.3955599999999997e+00 7.1781600000000001e+00 0 0 0
6033 444 4 0.0000000000000000e+00 2.5366499999999998e+00 4.3955599999999997e+00 2.3926400000000001e+00 0 0 0
6034 444 4 0.0000000000000000e+00 5.0744199999999999e+00 2.9303699999999999e+00 2.3926400000000001e+00 0 0 0
6035 444 4 0.0000000000000000e+00 8.4509000000000001e-01 4.3955599999999997e+00 4.7824499999999999e+00 0 0 0
6036 444 4 0.0000000000000000e+00 3.3828700000000000e+00 2.9303699999999999e+00 4.7824400000000002e+00 0 0 0
6037 444 4 0.0000000000000000e+00 1.6907200000000000e+00 5.8607399999999998e+00 0.0000000000000000e+00 0 0 0
6038 444 4 0.0000000000000000e+00 4.2285000000000004e+00 7.3259299999999996e+00 0.0000000000000000e+00 0 0 0
6039 444 4 6.9440000000000002e-02 1.6907700000000001e+00 5.8607399999999998e+00 7.1781499999999996e+00 0 0 0
6040 444 4 6.9440000000000002e-02 4.2285500000000003e+00 7.3259299999999996e+00 7.1781499999999996e+00 0 0 0
6041 444 4 0.0000000000000000e+00 2.5366499999999998e+00 7.3259299999999996e+00 2.3926400000000001e+00 0 0 0
6042 444 4 0.0000000000000000e+00 5.0744199999999999e+00 5.8607399999999998e+00 2.3926400000000001e+00 0 0 0
6043 444 4 0.0000000000000000e+00 8.4509000000000001e-01 7.3259299999999996e+00 4.7824200000000001e+00 0 0 0
6044 444 4 0.0000000000000000e+00 3.3828600000000000e+00 5.8607399999999998e+00 4.7824499999999999e+00 0 0 0
6149 444 4 0.0000000000000000e+00 6.7662699999999996e+00 0.0000000000000000e+00 0.0000000000000000e+00 0 0 0
6151 444 4 6.9440000000000002e-02 6.7663200000000003e+00 0.0000000000000000e+00 7.1781499999999996e+00 0 0 0
6153 444 4 0.0000000000000000e+00 7.6121999999999996e+00 1.4651900000000000e+00 2.3926400000000001e+00 0 0 0
6155 444 4 0.0000000000000000e+00 5.9206399999999997e+00 1.4651900000000000e+00 4.7824200000000001e+00 0 0 0
6157 444 4 0.0000000000000000e+00 6.7662699999999996e+00 2.9303699999999999e+00 0.0000000000000000e+00 0 0 0
6159 444 4 6.9440000000000002e-02 6.7663200000000003e+00 2.9303699999999999e+00 7.1781899999999998e+00 0 0 0
6161 444 4 0.0000000000000000e+00 7.6121999999999996e+00 4.3955599999999997e+00 2.3926400000000001e+00 0 0 0
6163 444 4 0.0000000000000000e+00 5.9206399999999997e+00 4.3955599999999997e+00 4.7824499999999999e+00 0 0 0
6165 444 4 0.0000000000000000e+00 6.7662699999999996e+00 5.8607399999999998e+00 0.0000000000000000e+00 0 0 0
6167 444 4 6.9440000000000002e-02 6.7663200000000003e+00 5.8607399999999998e+00 7.1781499999999996e+00 0 0 0
6169 444 4 0.0000000000000000e+00 7.6121999999999996e+00 7.3259299999999996e+00 2.3926400000000001e+00 0 0 0
6171 444 4 0.0000000000000000e+00 5.9206399999999997e+00 7.3259299999999996e+00 4.7824200000000001e+00 0 0 0
6045 444 4 0.0000000000000000e+00 1.6907200000000000e+00 8.7911099999999998e+00 0.0000000000000000e+00 0 0 0
6046 444 4 0.0000000000000000e+00 4.2285000000000004e+00 1.0256300000000000e+01 0.0000000000000000e+00 0 0 0
6047 444 4 6.9440000000000002e-02 1.6907700000000001e+00 8.7911099999999998e+00 7.1781899999999998e+00 0 0 0
6048 444 4 6.9440000000000002e-02 4.2285500000000003e+00 1.0256300000000000e+01 7.1781600000000001e+00 0 0 0
6049 444 4 0.0000000000000000e+00 2.5366499999999998e+00 1.0256300000000000e+01 2.3926400000000001e+00 0 0 0
6050 444 4 0.0000000000000000e+00 5.0744199999999999e+00 8.7911099999999998e+00 2.3926400000000001e+00 0 0 0
6051 444 4 0.0000000000000000e+00 8.4509000000000001e-01 1.0256300000000000e+01 4.7824499999999999e+00 0 0 0
6052 444 4 0.0000000000000000e+00 3.3828700000000000e+00 8.7911099999999998e+00 4.7824400000000002e+00 0 0 0
6173 444 4 0.0000000000000000e+00 6.7662699999999996e+00 8.7911099999999998e+00 0.0000000000000000e+00 0 0 0
6175 444 4 6.9440000000000002e-02 6.7663200000000003e+00 8.7911099999999998e+00 7.1781899999999998e+00 0 0 0
6177 444 4 0.0000000000000000e+00 7.6121999999999996e+00 1.0256300000000000e+01 2.3926400000000001e+00 0 0 0
6179 444 4 0.0000000000000000e+00 5.9206399999999997e+00 1.0256300000000000e+01 4.7824499999999999e+00 0 0 0
6150 444 4 0.0000000000000000e+00 9.3040500000000002e+00 1.4651900000000000e+00 0.0000000000000000e+00 0 0 0
6152 444 4 6.9440000000000002e-02 9.3041000000000000e+00 1.4651900000000000e+00 7.1781499999999996e+00 0 0 0
6154 444 4 0.0000000000000000e+00 1.0149970000000000e+01 0.0000000000000000e+00 2.3926400000000001e+00 0 0 0
6156 444 4 0.0000000000000000e+00 8.4584100000000007e+00 0.0000000000000000e+00 4.7824499999999999e+00 0 0 0
6158 444 4 0.0000000000000000e+00 9.3040500000000002e+00 4.3955599999999997e+00 0.0000000000000000e+00 0 0 0
6160 444 4 6.9440000000000002e-02 9.3041000000000000e+00 4.3955599999999997e+00 7.1781600000000001e+00 0 0 0
6162 444 4 0.0000000000000000e+00 1.0149970000000000e+01 2.9303699999999999e+00 2.3926400000000001e+00 0 0 0
6164 444 4 0.0000000000000000e+00 8.4584200000000003e+00 2.9303699999999999e+00 4.7824400000000002e+00 0 0 0
6166 444 4 0.0000000000000000e+00 9.3040500000000002e+00 7.3259299999999996e+00 0.0000000000000000e+00 0 0 0
6168 444 4 6.9440000000000002e-02 9.3041000000000000e+00 7.3259299999999996e+00 7.1781499999999996e+00 0 0 0
6170 444 4 0.0000000000000000e+00 1.0149970000000000e+01 5.8607399999999998e+00 2.3926400000000001e+00 0 0 0
6172 444 4 0.0000000000000000e+00 8.4584100000000007e+00 5.8607399999999998e+00 4.7824499999999999e+00 0 0 0
6283 444 4 0.0000000000000000e+00 1.0996190000000000e+01 1.4651900000000000e+00 4.7824200000000001e+00 0 0 0
6291 444 4 0.0000000000000000e+00 1.0996190000000000e+01 4.3955599999999997e+00 4.7824499999999999e+00 0 0 0
6299 444 4 0.0000000000000000e+00 1.0996190000000000e+01 7.3259299999999996e+00 4.7824200000000001e+00 0 0 0
6277 444 4 0.0000000000000000e+00 1.1841820000000000e+01 0.0000000000000000e+00 0.0000000000000000e+00 0 0 0
6278 444 4 0.0000000000000000e+00 1.4379600000000000e+01 1.4651900000000000e+00 0.0000000000000000e+00 0 0 0
6279 444 4 6.9440000000000002e-02 1.1841870000000000e+01 0.0000000000000000e+00 7.1781499999999996e+00 0 0 0
6280 444 4 6.9440000000000002e-02 1.4379650000000000e+01 1.4651900000000000e+00 7.1781499999999996e+00 0 0 0
6281 444 4 0.0000000000000000e+00 1.2687749999999999e+01 1.4651900000000000e+00 2.3926400000000001e+00 0 0 0
6282 444 4 0.0000000000000000e+00 1.5225519999999999e+01 0.0000000000000000e+00 2.3926400000000001e+00 0 0 0
6284 444 4 0.0000000000000000e+00 1.3533960000000000e+01 0.0000000000000000e+00 4.7824499999999999e+00 0 0 0
6285 444 4 0.0000000000000000e+00 1.1841820000000000e+01 2.9303699999999999e+00 0.0000000000000000e+00 0 0 0
6286 444 4 0.0000000000000000e+00 1.4379600000000000e+01 4.3955599999999997e+00 0.0000000000000000e+00 0 0 0
6287 444 4 6.9440000000000002e-02 1.1841870000000000e+01 2.9303699999999999e+00 7.1781899999999998e+00 0 0 0
6288 444 4 6.9440000000000002e-02 1.4379650000000000e+01 4.3955599999999997e+00 7.1781600000000001e+00 0 0 0
6289 444 4 0.0000000000000000e+00 1.2687749999999999e+01 4.3955599999999997e+00 2.3926400000000001e+00 0 0 0
6290 444 4 0.0000000000000000e+00 1.5225519999999999e+01 2.9303699999999999e+00 2.3926400000000001e+00 0 0 0
6292 444 4 0.0000000000000000e+00 1.3533970000000000e+01 2.9303699999999999e+00 4.7824400000000002e+00 0 0 0
6293 444 4 0.0000000000000000e+00 1.1841820000000000e+01 5.8607399999999998e+00 0.0000000000000000e+00 0 0 0
6294 444 4 0.0000000000000000e+00 1.4379600000000000e+01 7.3259299999999996e+00 0.0000000000000000e+00 0 0 0
6295 444 4 6.9440000000000002e-02 1.1841870000000000e+01 5.8607399999999998e+00 7.1781499999999996e+00 0 0 0
6296 444 4 6.9440000000000002e-02 1.4379650000000000e+01 7.3259299999999996e+00 7.1781499999999996e+00 0 0 0
6297 444 4 0.0000000000000000e+00 1.2687749999999999e+01 7.3259299999999996e+00 2.3926400000000001e+00 0 0 0
6298 444 4 0.0000000000000000e+00 1.5225519999999999e+01 5.8607399999999998e+00 2.3926400000000001e+00 0 0 0
6300 444 4 0.0000000000000000e+00 1.3533960000000000e+01 5.8607399999999998e+00 4.7824499999999999e+00 0 0 0
6174 444 4 0.0000000000000000e+00 9.3040500000000002e+00 1.0256300000000000e+01 0.0000000000000000e+00 0 0 0
6176 444 4 6.9440000000000002e-02 9.3041000000000000e+00 1.0256300000000000e+01 7.1781600000000001e+00 0 0 0
6178 444 4 0.0000000000000000e+00 1.0149970000000000e+01 8.7911099999999998e+00 2.3926400000000001e+00 0 0 0
6180 444 4 0.0000000000000000e+00 8.4584200000000003e+00 8.7911099999999998e+00 4.7824400000000002e+00 0 0 0
6307 444 4 0.0000000000000000e+00 1.0996190000000000e+01 1.0256300000000000e+01 4.7824499999999999e+00 0 0 0
6301 444 4 0.0000000000000000e+00 1.1841820000000000e+01 8.7911099999999998e+00 0.0000000000000000e+00 0 0 0
6302 444 4 0.0000000000000000e+00 1.4379600000000000e+01 1.0256300000000000e+01 0.0000000000000000e+00 0 0 0
6303 444 4 6.9440000000000002e-02 1.1841870000000000e+01 8.7911099999999998e+00 7.1781899999999998e+00 0 0 0
6304 444 4 6.9440000000000002e-02 1.4379650000000000e+01 1.0256300000000000e+01 7.1781600000000001e+00 0 0 0
6305 444 4 0.0000000000000000e+00 1.2687749999999999e+01 1.0256300000000000e+01 2.3926400000000001e+00 0 0 0
6306 444 4 0.0000000000000000e+00 1.5225519999999999e+01 8.7911099999999998e+00 2.3926400000000001e+00 0 0 0
6308 444 4 0.0000000000000000e+00 1.3533970000000000e+01 8.7911099999999998e+00 4.7824400000000002e+00 0 0 0
2458 444 2 -8.2999999999999996e-01 5.9138444112419641e+00 5.5044004210681079e+00 9.8495348123151754e+00 -1 -3 0
2459 444 1 4.1499999999999998e-01 6.4097689463909404e+00 4.7178802406963110e+00 1.0076859972485114e+01 -1 -3 0
2460 444 1 4.1499999999999998e-01 5.0542750779240286e+00 5.1776737582675318e+00 9.5837864203753469e+00 -1 -3 0
6003 444 3 -1.0000000000000000e+00 3.6601609378525208e+00 4.3451620962526531e+00 9.2513238241787032e+00 1 1 0
4776 444 1 4.1499999999999998e-01 6.1542663493438790e+00 7.2246759840631549e+00 1.0114896886758149e+01 -4 3 0
4774 444 2 -8.2999999999999996e-01 6.0564824194400089e+00 8.0265179110710179e+00 1.0628433363060200e+01 -4 3 0
3044 444 1 4.1499999999999998e-01 1.7013399414162993e+00 7.3251776645541682e+00 1.4543770568263957e+01 -4 1 0
4775 444 1 4.1499999999999998e-01 5.2529462871407286e+00 8.4273348535881620e+00 1.0296910609679792e+01 -4 3 0
3804 444 1 4.1499999999999998e-01 2.2896339654246924e+00 3.8255671803768299e+00 9.7688585482577697e+00 -4 -1 0
2342 444 1 4.1499999999999998e-01 1.8314577070557618e+00 2.9459408928984132e+00 1.1688437914901185e+01 0 1 0
2341 444 2 -8.2999999999999996e-01 1.9401813631273528e+00 2.6877228101376689e+00 1.2603716290494789e+01 0 1 0
4893 444 1 4.1499999999999998e-01 2.7363465538882057e+00 5.5231661262433596e+00 1.0093027058993504e+01 1 6 0
787 444 2 -8.2999999999999996e-01 1.3479603677954533e+00 5.6095630040436237e+00 1.2917091741581389e+01 1 1 0
4892 444 1 4.1499999999999998e-01 2.5432003427917320e+00 7.0240730025163645e+00 1.0049802576214763e+01 1 6 0
4891 444 2 -8.2999999999999996e-01 2.1792967261949454e+00 6.2246991285898607e+00 1.0430338351836598e+01 1 6 0
788 444 1 4.1499999999999998e-01 1.7962868253485433e+00 5.8992576764361360e+00 1.2122539502181086e+01 1 1 0
4352 444 1 4.1499999999999998e-01 5.7350433170014536e+00 2.5985097989687698e+00 1.0099329608515546e+01 1 2 0
4351 444 2 -8.2999999999999996e-01 4.8393998043124542e+00 2.2624967714114401e+00 1.0065420296554537e+01 1 2 0
4353 444 1 4.1499999999999998e-01 4.3324847784244653e+00 2.9701968685643854e+00 9.6673879368425819e+00 1 2 0
2173 444 2 -8.2999999999999996e-01 2.5364070300039270e+00 9.4836474996777209e+00 1.2373533118315885e+01 -1 -1 0
2175 444 1 4.1499999999999998e-01 2.2595050889965655e+00 9.2928476032666403e+00 1.3269721469860148e+01 -1 -1 0
4201 444 2 -8.2999999999999996e-01 4.1072521901541137e+00 4.7608958518112088e+00 1.2439033081626029e+01 0 6 0
4203 444 1 4.1499999999999998e-01 4.0593318306634156e+00 5.2139363819261506e+00 1.1597195864427654e+01 0 6 0
4202 444 1 4.1499999999999998e-01 4.3620106299650221e+00 5.4404807159462836e+00 1.3063128728136853e+01 0 6 0
4065 444 1 4.1499999999999998e-01 3.4055718211518138e+00 9.5274352553302180e+00 9.7150361434325188e+00 0 5 0
789 444 1 4.1499999999999998e-01 1.5962530728873332e+00 4.6899082006714448e+00 1.3010996529493838e+01 1 1 0
4063 444 2 -8.2999999999999996e-01 3.5483440962016015e+00 8.6421990609925565e+00 1.0050006113770708e+01 0 5 0
4064 444 1 4.1499999999999998e-01 3.1263548988233865e+00 8.6397452368004863e+00 1.0909163251326643e+01 0 5 0
5485 444 2 -8.2999999999999996e-01 3.0240992058794696e+00 4.0910105463117707e+00 1.5460515285715980e+01 -2 -3 0
5486 444 1 4.1499999999999998e-01 3.2864690982850333e+00 3.8072485644664860e+00 1.4584802281928171e+01 -2 -3 0
5487 444 1 4.1499999999999998e-01 2.5750275851407891e+00 3.3326795265640281e+00 1.5834014372651335e+01 -2 -3 0
3043 444 2 -8.2999999999999996e-01 1.9824362900900196e+00 8.1693513150067449e+00 1.4896740397835504e+01 -4 1 0
5219 444 1 4.1499999999999998e-01 1.5915931573137403e+00 1.0488697671257949e+01 9.8008359976691999e+00 0 -1 0
3045 444 1 4.1499999999999998e-01 2.7659085224305473e+00 7.9668175693226653e+00 1.5407996976121554e+01 -4 1 0
2343 444 1 4.1499999999999998e-01 2.8406769329377370e+00 2.3676367050706397e+00 1.2657425053089549e+01 0 1 0
3802 444 2 -8.2999999999999996e-01 1.4780880115661856e+00 3.4027145760032953e+00 1.0049609197712744e+01 -4 -1 0
413 444 1 4.1499999999999998e-01 6.2553467502022659e+00 1.0525615645564775e+01 1.3603034817083232e+01 3 0 0
768 444 1 4.1499999999999998e-01 6.1903753488656985e+00 7.6695752544394917e+00 1.3780734563949636e+01 -4 0 0
2992 444 2 -8.2999999999999996e-01 7.3521135417207635e+00 2.9210728789439653e+00 1.0318885992154859e+01 3 -3 0
3644 444 1 4.1499999999999998e-01 7.6296502754793150e-01 7.2680779569999903e+00 1.0647125108987487e+01 2 2 0
1893 444 1 4.1499999999999998e-01 4.5126527291876810e+00 8.0059492912969199e-01 1.3806596503190672e+01 -2 -1 0
412 444 2 -8.2999999999999996e-01 6.6157466134738536e+00 1.1340292396553409e+01 1.3252826798861596e+01 3 0 0
3803 444 1 4.1499999999999998e-01 8.3672629218977579e-01 4.1124876106998407e+00 1.0082914950236095e+01 -4 -1 0
2371 444 2 -8.2999999999999996e-01 5.4023456928561622e+00 6.1797165393483349e+00 1.4340457777323833e+01 -2 3 0
2372 444 1 4.1499999999999998e-01 5.1228798761021155e+00 6.7273286650462438e+00 1.5074114330776370e+01 -2 3 0
766 444 2 -8.2999999999999996e-01 6.5700482720163667e+00 8.5391416924144679e+00 1.3654499069206249e+01 -4 0 0
4316 444 1 4.1499999999999998e-01 9.0776809895103161e-01 1.9692328951090350e+00 1.3729761801659919e+01 1 -2 0
5218 444 2 -8.2999999999999996e-01 9.1199142930248200e-01 1.0025837974072347e+01 1.0290871083824346e+01 0 -1 0
5220 444 1 4.1499999999999998e-01 1.2465836778838233e+00 9.9868428856933349e+00 1.1186839443904692e+01 0 -1 0
5319 444 1 4.1499999999999998e-01 5.8270407039385475e-01 8.3782846495712315e-01 1.1623543236606695e+01 2 2 0
5861 444 1 4.1499999999999998e-01 5.0308908201494082e+00 1.1274941610594867e+01 1.1093425298641217e+01 -3 0 0
4611 444 1 4.1499999999999998e-01 5.0539068200951096e+00 2.0424733725637108e+00 1.1995770659895125e+01 -1 0 0
3584 444 1 4.1499999999999998e-01 2.7805826121289665e+00 9.5421478632286849e-01 1.0153663932605836e+01 -2 -3 0
3591 444 1 4.1499999999999998e-01 7.6305273988946654e-01 1.1082717186506466e+01 1.6226064779855840e+01 0 -1 0
4550 444 1 4.1499999999999998e-01 6.9620067591361208e+00 1.1105198473557193e+01 1.0458521037247817e+01 0 -1 0
4609 444 2 -8.2999999999999996e-01 4.8415989513952775e+00 2.3236073914792383e+00 1.2885782422614788e+01 -1 0 0
4315 444 2 -8.2999999999999996e-01 2.0685388881429509e-01 1.8738875772982782e+00 1.4374634247048197e+01 1 -2 0
2373 444 1 4.1499999999999998e-01 6.2411354237152796e+00 5.8132492515144616e+00 1.4620397546430203e+01 -2 3 0
767 444 1 4.1499999999999998e-01 6.7243097359218655e+00 8.5990950375570474e+00 1.2711715229669432e+01 -4 0 0
5291 444 1 4.1499999999999998e-01 4.5555902635806717e-01 5.0646322578162719e+00 1.5753547781214923e+01 1 0 0
875 444 1 4.1499999999999998e-01 1.1187975270068073e+00 1.6974817844429557e+00 1.6149287033075741e+01 -2 2 0
3645 444 1 4.1499999999999998e-01 3.5196459199511518e-02 8.5010746399667596e+00 1.0155222674657878e+01 2 2 0
4610 444 1 4.1499999999999998e-01 4.8012380973136501e+00 3.2784783214651760e+00 1.2832637146059637e+01 -1 0 0
559 444 2 -8.2999999999999996e-01 6.0944731932323970e+00 1.9998547899669976e+00 1.5791248794785494e+01 0 1 0
560 444 1 4.1499999999999998e-01 5.3502396127908298e+00 1.4410079958948916e+00 1.5567555448714392e+01 0 1 0
561 444 1 4.1499999999999998e-01 6.1348190384341041e+00 2.6411581878100105e+00 1.5081788031358430e+01 0 1 0
3583 444 2 -8.2999999999999996e-01 2.5114364564102769e+00 1.5905567436638293e-01 1.0613570643546604e+01 -2 -3 0
5862 444 1 4.1499999999999998e-01 4.5497079968422387e+00 1.1383214910736793e+01 9.6621198815296072e+00 -3 0 0
2174 444 1 4.1499999999999998e-01 2.9088245515781153e+00 1.0364216288756946e+01 1.2419751607670243e+01 -1 -1 0
5860 444 2 -8.2999999999999996e-01 5.3099288004667642e+00 1.1548750771336607e+01 1.0219698678456391e+01 -3 0 0
6010 444 3 -1.0000000000000000e+00 2.9257797415406128e+00 1.1109504561756729e+01 9.0337078721478914e+00 2 1 0
1797 444 1 4.1499999999999998e-01 6.4859237829985772e-01 1.1631154391873519e+01 1.4214732905608370e+01 3 0 0
651 444 1 4.1499999999999998e-01 1.3323251380040073e+01 7.8581026466831077e+00 1.5455854988805649e+01 3 0 0
2994 444 1 4.1499999999999998e-01 7.8368772394186994e+00 2.0993672074911913e+00 1.0396576940397182e+01 3 -3 0
650 444 1 4.1499999999999998e-01 1.4050026810719041e+01 6.6317784571216709e+00 1.4946127893302608e+01 3 0 0
4124 444 1 4.1499999999999998e-01 1.5093435881047299e+01 3.5086964576396301e-01 1.5833181600754338e+01 5 -1 0
3169 444 2 -8.2999999999999996e-01 8.7789791106478319e+00 5.6580365754419382e-02 1.3450096687443294e+01 2 0 0
5699 444 1 4.1499999999999998e-01 1.1458212208779099e+01 2.6066655458488848e+00 1.2586377550857277e+01 2 5 0
2071 444 2 -8.2999999999999996e-01 1.2532804446736133e+01 5.7480415726395258e+00 1.0755883752618873e+01 2 -2 0
5698 444 2 -8.2999999999999996e-01 1.2300771474148174e+01 2.4238189080571444e+00 1.2170573616619201e+01 2 5 0
4182 444 1 4.1499999999999998e-01 7.7174641318050750e+00 7.9901730937910873e+00 1.0866647077105453e+01 1 -2 0
511 444 2 -8.2999999999999996e-01 9.6752911181935044e+00 2.5742416815293012e+00 1.3679394601553117e+01 -4 -2 0
5677 444 2 -8.2999999999999996e-01 1.0768161610570797e+01 4.9037772383076961e+00 1.2761992786857402e+01 2 2 0
4181 444 1 4.1499999999999998e-01 8.3582788846559346e+00 9.3402875868512130e+00 1.0624898218368253e+01 1 -2 0
4180 444 2 -8.2999999999999996e-01 8.5629605131364457e+00 8.4086298477322785e+00 1.0704592480938981e+01 1 -2 0
2993 444 1 4.1499999999999998e-01 7.9982155931063650e+00 3.6001440975616279e+00 1.0512912544105912e+01 3 -3 0
4946 444 1 4.1499999999999998e-01 1.2070168449243628e+01 9.7919287920188740e+00 1.3381752547407130e+01 4 3 0
3027 444 1 4.1499999999999998e-01 8.5255501841814336e+00 6.4434238977717300e+00 1.4719510696970907e+01 2 -1 0
3025 444 2 -8.2999999999999996e-01 8.0671141467229450e+00 5.7447015437019209e+00 1.5186261676900951e+01 2 -1 0
3026 444 1 4.1499999999999998e-01 8.7648194952385623e+00 5.2236493353710882e+00 1.5583684029041288e+01 2 -1 0
4945 444 2 -8.2999999999999996e-01 1.1575744547607693e+01 9.5880067719667199e+00 1.2587905567904665e+01 4 3 0
4947 444 1 4.1499999999999998e-01 1.0762572588200019e+01 1.0084984199020040e+01 1.2677332891302679e+01 4 3 0
2073 444 1 4.1499999999999998e-01 1.1800467054871213e+01 6.2008361389941236e+00 1.0337684117112106e+01 2 -2 0
272 444 1 4.1499999999999998e-01 1.0326460416630317e+01 4.2141092347855835e+00 9.9627709348026148e+00 1 2 0
271 444 2 -8.2999999999999996e-01 9.5830409316576404e+00 4.4148836984676789e+00 1.0531321078103625e+01 1 2 0
6005 444 3 -1.0000000000000000e+00 1.1553696958674420e+01 3.3939594380241389e+00 9.4332186677006824e+00 0 1 0
2072 444 1 4.1499999999999998e-01 1.2517094180611423e+01 4.8679570273287691e+00 1.0379803624656841e+01 2 -2 0
512 444 1 4.1499999999999998e-01 9.9710822839548126e+00 3.4344285684518137e+00 1.3381369277056519e+01 -4 -2 0
513 444 1 4.1499999999999998e-01 9.3153826002961910e+00 2.7332718000459106e+00 1.4551981419231788e+01 -4 -2 0
4129 444 2 -8.2999999999999996e-01 8.3676305848247132e+00 5.6437949408912913e-01 1.0876244928036133e+01 0 1 0
5678 444 1 4.1499999999999998e-01 1.0356719123104867e+01 5.6469762087716111e+00 1.3203131598101056e+01 2 2 0
2669 444 1 4.1499999999999998e-01 1.0141156404594014e+01 5.9482397441227981e+00 1.0008865827782239e+01 -1 0 0
2670 444 1 4.1499999999999998e-01 9.8644158202583831e+00 7.4365769943783162e+00 1.0021597293798987e+01 -1 0 0
5383 444 2 -8.2999999999999996e-01 9.8188025884505894e+00 7.3599075752498972e+00 1.3526723904046282e+01 2 5 0
5384 444 1 4.1499999999999998e-01 9.4053250386950538e+00 7.8203660285319003e+00 1.2796486584657808e+01 2 5 0
5385 444 1 4.1499999999999998e-01 1.0709198572013554e+01 7.7098529988169062e+00 1.3557798619652745e+01 2 5 0
5679 444 1 4.1499999999999998e-01 1.1441150764877651e+01 5.2970349494557700e+00 1.2206414646622541e+01 2 2 0
2668 444 2 -8.2999999999999996e-01 1.0520520326187720e+01 6.7908651040122869e+00 9.7592713376861084e+00 -1 0 0
4499 444 1 4.1499999999999998e-01 1.1051357117848966e+01 1.8563390986821622e+00 9.6014543298143114e+00 -2 3 0
273 444 1 4.1499999999999998e-01 9.8191385586111899e+00 4.0357843133872091e+00 1.1377945848578852e+01 1 2 0
3141 444 1 4.1499999999999998e-01 1.4476469226236309e+01 4.4850425296596201e+00 1.2337597865237205e+01 -1 -1 0
5323 444 2 -8.2999999999999996e-01 1.3677707040492772e+01 9.4437875119270736e+00 1.0569378865733137e+01 0 3 0
5325 444 1 4.1499999999999998e-01 1.2903149420763645e+01 9.5170852006936606e+00 1.1126981482108862e+01 0 3 0
960 444 1 4.1499999999999998e-01 1.3033962095708368e+01 4.3865706800740627e+00 1.4620434636649012e+01 1 0 0
2504 444 1 4.1499999999999998e-01 1.3162903701693095e+01 2.9714371654752845e+00 9.8392659726153742e+00 -1 1 0
5324 444 1 4.1499999999999998e-01 1.3838763851002007e+01 8.5024413010217437e+00 1.0504872709553231e+01 0 3 0
5700 444 1 4.1499999999999998e-01 1.2122525186254139e+01 2.4808480509648723e+00 1.1231846829671408e+01 2 5 0
3139 444 2 -8.2999999999999996e-01 1.4340354950959618e+01 3.9200333160013612e+00 1.3098169585205683e+01 -1 -1 0
4131 444 1 4.1499999999999998e-01 8.4613936169443473e+00 4.5300259318091085e-01 1.1822308114511427e+01 0 1 0
2590 444 2 -8.2999999999999996e-01 1.3512357437523312e+01 1.0134781011126572e+01 1.4779068282384571e+01 -2 -4 0
3140 444 1 4.1499999999999998e-01 1.3808596719941550e+01 3.1961652590426706e+00 1.2767291830259943e+01 -1 -1 0
959 444 1 4.1499999999999998e-01 1.2668072715807403e+01 5.5604063522284051e+00 1.5503684313285873e+01 1 0 0
1150 444 2 -8.2999999999999996e-01 1.3426753278582575e+01 1.5934275133067013e-01 1.0374798525431954e+01 -3 6 0
958 444 2 -8.2999999999999996e-01 1.2516440386523691e+01 4.6221002688764239e+00 1.5390453460628533e+01 1 0 0
4549 444 2 -8.2999999999999996e-01 7.8468436289735646e+00 1.0959559697041527e+01 1.0123730012900230e+01 0 -1 0
3170 444 1 4.1499999999999998e-01 9.2033852072619986e+00 9.0352559130654120e-01 1.3587192041428143e+01 2 0 0
2503 444 2 -8.2999999999999996e-01 1.4079443099657112e+01 2.7400652400910301e+00 9.9897800838622679e+00 -1 1 0
4498 444 2 -8.2999999999999996e-01 1.0945569839122305e+01 9.1384468126637264e-01 9.7308586309322234e+00 -2 3 0
3592 444 2 -8.2999999999999996e-01 1.4657306689364658e+01 7.0164753900308652e+00 1.0375661087495681e+01 -3 0 0
3594 444 1 4.1499999999999998e-01 1.3894181359867225e+01 6.5601442689370799e+00 1.0730109370628496e+01 -3 0 0
4500 444 1 4.1499999999999998e-01 1.0068808440382400e+01 8.1964652692009476e-01 1.0103213326808167e+01 -2 3 0
649 444 2 -8.2999999999999996e-01 1.3202749968073173e+01 7.0761961498082817e+00 1.4917028910393629e+01 3 0 0
2505 444 1 4.1499999999999998e-01 1.4089929975038190e+01 1.7829642038513747e+00 9.9808625846659407e+00 -1 1 0
2591 444 1 4.1499999999999998e-01 1.2704456689654748e+01 9.8734793969035906e+00 1.5220939581519827e+01 -2 -4 0
317 444 1 4.1499999999999998e-01 1.3444264100002661e+01 1.0999906887789733e+01 9.9466118109409969e+00 -1 0 0
4715 444 1 4.1499999999999998e-01 7.7857962813511241e+00 1.0450030183710190e+01 1.5623029282104060e+01 4 0 0
1995 444 1 4.1499999999999998e-01 1.1061742324299725e+01 4.7538750009304280e+00 1.6115667344734387e+01 1 -1 0
1152 444 1 4.1499999999999998e-01 1.2561639540006274e+01 5.2596558014278216e-01 1.0192047797729829e+01 -3 6 0
3921 444 1 4.1499999999999998e-01 9.9612452922405410e+00 9.8407740854918178e+00 1.5654988652492795e+01 -3 -2 0
3919 444 2 -8.2999999999999996e-01 1.0855707399269521e+01 9.8039900028054401e+00 1.5993834274824380e+01 -3 -2 0
4388 444 1 4.1499999999999998e-01 1.5172730276238360e+01 4.1348860580470301e+00 9.7638925968679153e+00 0 4 0
4716 444 1 4.1499999999999998e-01 7.6651352544940252e+00 9.3772288549789504e+00 1.4561693532376131e+01 4 0 0
76 444 2 -8.2999999999999996e-01 9.3875948821559252e+00 1.1152038453386551e+01 1.2894221548397601e+01 -3 -1 0
77 444 1 4.1499999999999998e-01 9.1948451160260429e+00 1.0637349176703552e+01 1.3677914319897853e+01 -3 -1 0
4714 444 2 -8.2999999999999996e-01 8.3084536326334515e+00 9.8560235936911234e+00 1.5084310938553383e+01 4 0 0
897 444 1 4.1499999999999998e-01 1.0622951270948477e+01 1.1371125581301230e+01 1.1566583099458800e+01 1 -3 0
2592 444 1 4.1499999999999998e-01 1.3892106223302898e+01 1.0803527255461155e+01 1.5348982183010968e+01 -2 -4 0
78 444 1 4.1499999999999998e-01 8.5292457515292401e+00 1.1419215459301817e+01 1.2565458569651486e+01 -3 -1 0
819 444 1 4.1499999999999998e-01 1.6499696090437914e+00 1.3581015417549896e-01 2.0767506058359054e+01 -1 -2 0
4491 444 1 4.1499999999999998e-01 6.1805060682116650e+00 1.1648781749277964e+01 2.1243292129625807e+01 3 -2 0
4962 444 1 4.1499999999999998e-01 6.7753643710037392e-01 7.3848283845028195e+00 2.1921996481284619e+01 2 -6 0
1169 444 1 4.1499999999999998e-01 3.1081668651785743e+00 1.5364907775580285e+00 1.9849589195590191e+01 1 3 0
2610 444 1 4.1499999999999998e-01 7.3802296544796562e+00 7.0157434084387180e+00 1.6945281825634165e+01 1 -1 0
4151 444 1 4.1499999999999998e-01 4.3181619980302202e+00 1.9159559882586299e-01 1.8681213194573644e+01 -2 -2 0
2493 444 1 4.1499999999999998e-01 3.4478550791065854e+00 6.6329945223957143e+00 1.7093880857378625e+01 -3 -3 0
876 444 1 4.1499999999999998e-01 9.9366535968605685e-01 2.4915033834383959e+00 1.7432161480158687e+01 -2 2 0
1170 444 1 4.1499999999999998e-01 3.0260446899781068e+00 2.0403773961569760e+00 1.8424370100375324e+01 1 3 0
2491 444 2 -8.2999999999999996e-01 2.6955747141506232e+00 6.0464353178228931e+00 1.7172976619290537e+01 -3 -3 0
2492 444 1 4.1499999999999998e-01 2.9829559864870214e+00 5.2308737836445385e+00 1.6762483240511145e+01 -3 -3 0
4961 444 1 4.1499999999999998e-01 1.2793277080408747e+00 7.2443730420047130e+00 2.0539963634782136e+01 2 -6 0
4052 444 1 4.1499999999999998e-01 3.0401028690091247e+00 5.5879423277458660e+00 1.9284346133138385e+01 1 2 0
4053 444 1 4.1499999999999998e-01 3.3938594719446278e+00 6.2161078301205057e+00 2.0615570988621990e+01 1 2 0
2047 444 2 -8.2999999999999996e-01 5.8867429380777487e+00 1.4774921218496189e+00 2.1636579001430810e+01 -3 0 0
2608 444 2 -8.2999999999999996e-01 6.7680968637194869e+00 7.1307755659584240e+00 1.7672119811296277e+01 1 -1 0
4051 444 2 -8.2999999999999996e-01 3.5653636238185840e+00 5.4470747734274312e+00 2.0072057714967080e+01 1 2 0
1952 444 1 4.1499999999999998e-01 6.2620822247788919e+00 1.9914883303047235e+00 1.7813089600223957e+01 2 -1 0
1951 444 2 -8.2999999999999996e-01 6.0912396267876998e+00 2.1988670915518722e+00 1.8731805399116837e+01 2 -1 0
811 444 2 -8.2999999999999996e-01 5.0492160139703515e+00 9.6966896699646945e+00 1.9095832174286873e+01 -1 0 0
5502 444 1 4.1499999999999998e-01 7.9784913051078798e-01 9.1045443073091352e+00 1.8615214743968220e+01 1 1 0
812 444 1 4.1499999999999998e-01 4.8297926877457513e+00 1.0380677414475455e+01 1.9728482270887039e+01 -1 0 0
813 444 1 4.1499999999999998e-01 5.5098547406053422e+00 9.0333492256152823e+00 1.9609664423794772e+01 -1 0 0
1412 444 1 4.1499999999999998e-01 1.6145523533811381e+00 6.3635897019258598e+00 1.8394558076804771e+01 0 3 0
1787 444 1 4.1499999999999998e-01 4.9341872748309124e+00 4.0246952501938367e+00 2.3250223425774060e+01 -1 1 0