LAMMPS data file via write_data, version 11 Aug 2017, timestep = 5000000

7156 atoms
4 atom types
4000 bonds
1 bond types
2000 angles
1 angle types

0.0000000000000000e+00 4.5679949999999998e+01 xlo xhi
0.0000000000000000e+00 4.6885919999999999e+01 ylo yhi
0.0000000000000000e+00 6.5000000000000000e+01 zlo zhi

Masses

1 1.0079
2 15.9994
3 18.9984
4 107.868

Bond Coeffs # harmonic

1 450 0.9572

Angle Coeffs # harmonic

1 500 104.52

Atoms # full

6005 444 4 0.0000000000000000e+00 1.6907200000000000e+00 0.0000000000000000e+00 0.0000000000000000e+00 0 0 0
6006 444 4 0.0000000000000000e+00 4.2285000000000004e+00 1.4651900000000000e+00 0.0000000000000000e+00 0 0 0
6007 444 4 1.3890000000000000e-02 1.6907700000000001e+00 0.0000000000000000e+00 7.1781499999999996e+00 0 0 0
6008 444 4 1.3890000000000000e-02 4.2285500000000003e+00 1.4651900000000000e+00 7.1781499999999996e+00 0 0 0
6009 444 4 0.0000000000000000e+00 2.5366499999999998e+00 1.4651900000000000e+00 2.3926400000000001e+00 0 0 0
6010 444 4 0.0000000000000000e+00 5.0744199999999999e+00 0.0000000000000000e+00 2.3926400000000001e+00 0 0 0
6011 444 4 0.0000000000000000e+00 8.4509000000000001e-01 1.4651900000000000e+00 4.7824200000000001e+00 0 0 0
6012 444 4 0.0000000000000000e+00 3.3828600000000000e+00 0.0000000000000000e+00 4.7824499999999999e+00 0 0 0
6013 444 4 0.0000000000000000e+00 1.6907200000000000e+00 2.9303699999999999e+00 0.0000000000000000e+00 0 0 0
6014 444 4 0.0000000000000000e+00 4.2285000000000004e+00 4.3955599999999997e+00 0.0000000000000000e+00 0 0 0
6015 444 4 1.3890000000000000e-02 1.6907700000000001e+00 2.9303699999999999e+00 7.1781899999999998e+00 0 0 0
6016 444 4 1.3890000000000000e-02 4.2285500000000003e+00 4.3955599999999997e+00 7.1781600000000001e+00 0 0 0
6017 444 4 0.0000000000000000e+00 2.5366499999999998e+00 4.3955599999999997e+00 2.3926400000000001e+00 0 0 0
6018 444 4 0.0000000000000000e+00 5.0744199999999999e+00 2.9303699999999999e+00 2.3926400000000001e+00 0 0 0
6019 444 4 0.0000000000000000e+00 8.4509000000000001e-01 4.3955599999999997e+00 4.7824499999999999e+00 0 0 0
6020 444 4 0.0000000000000000e+00 3.3828700000000000e+00 2.9303699999999999e+00 4.7824400000000002e+00 0 0 0
6021 444 4 0.0000000000000000e+00 1.6907200000000000e+00 5.8607399999999998e+00 0.0000000000000000e+00 0 0 0
6022 444 4 0.0000000000000000e+00 4.2285000000000004e+00 7.3259299999999996e+00 0.0000000000000000e+00 0 0 0
6023 444 4 1.3890000000000000e-02 1.6907700000000001e+00 5.8607399999999998e+00 7.1781499999999996e+00 0 0 0
6024 444 4 1.3890000000000000e-02 4.2285500000000003e+00 7.3259299999999996e+00 7.1781499999999996e+00 0 0 0
6025 444 4 0.0000000000000000e+00 2.5366499999999998e+00 7.3259299999999996e+00 2.3926400000000001e+00 0 0 0
6026 444 4 0.0000000000000000e+00 5.0744199999999999e+00 5.8607399999999998e+00 2.3926400000000001e+00 0 0 0
6027 444 4 0.0000000000000000e+00 8.4509000000000001e-01 7.3259299999999996e+00 4.7824200000000001e+00 0 0 0
6028 444 4 0.0000000000000000e+00 3.3828600000000000e+00 5.8607399999999998e+00 4.7824499999999999e+00 0 0 0
6133 444 4 0.0000000000000000e+00 6.7662699999999996e+00 0.0000000000000000e+00 0.0000000000000000e+00 0 0 0
6135 444 4 1.3890000000000000e-02 6.7663200000000003e+00 0.0000000000000000e+00 7.1781499999999996e+00 0 0 0
6137 444 4 0.0000000000000000e+00 7.6121999999999996e+00 1.4651900000000000e+00 2.3926400000000001e+00 0 0 0
6139 444 4 0.0000000000000000e+00 5.9206399999999997e+00 1.4651900000000000e+00 4.7824200000000001e+00 0 0 0
6141 444 4 0.0000000000000000e+00 6.7662699999999996e+00 2.9303699999999999e+00 0.0000000000000000e+00 0 0 0
6143 444 4 1.3890000000000000e-02 6.7663200000000003e+00 2.9303699999999999e+00 7.1781899999999998e+00 0 0 0
6145 444 4 0.0000000000000000e+00 7.6121999999999996e+00 4.3955599999999997e+00 2.3926400000000001e+00 0 0 0
6147 444 4 0.0000000000000000e+00 5.9206399999999997e+00 4.3955599999999997e+00 4.7824499999999999e+00 0 0 0
6149 444 4 0.0000000000000000e+00 6.7662699999999996e+00 5.8607399999999998e+00 0.0000000000000000e+00 0 0 0
6151 444 4 1.3890000000000000e-02 6.7663200000000003e+00 5.8607399999999998e+00 7.1781499999999996e+00 0 0 0
6153 444 4 0.0000000000000000e+00 7.6121999999999996e+00 7.3259299999999996e+00 2.3926400000000001e+00 0 0 0
6155 444 4 0.0000000000000000e+00 5.9206399999999997e+00 7.3259299999999996e+00 4.7824200000000001e+00 0 0 0
6029 444 4 0.0000000000000000e+00 1.6907200000000000e+00 8.7911099999999998e+00 0.0000000000000000e+00 0 0 0
6031 444 4 1.3890000000000000e-02 1.6907700000000001e+00 8.7911099999999998e+00 7.1781899999999998e+00 0 0 0
6034 444 4 0.0000000000000000e+00 5.0744199999999999e+00 8.7911099999999998e+00 2.3926400000000001e+00 0 0 0
6036 444 4 0.0000000000000000e+00 3.3828700000000000e+00 8.7911099999999998e+00 4.7824400000000002e+00 0 0 0
6157 444 4 0.0000000000000000e+00 6.7662699999999996e+00 8.7911099999999998e+00 0.0000000000000000e+00 0 0 0
6159 444 4 1.3890000000000000e-02 6.7663200000000003e+00 8.7911099999999998e+00 7.1781899999999998e+00 0 0 0
6030 444 4 0.0000000000000000e+00 4.2285000000000004e+00 1.0256300000000000e+01 0.0000000000000000e+00 0 0 0
6032 444 4 1.3890000000000000e-02 4.2285500000000003e+00 1.0256300000000000e+01 7.1781600000000001e+00 0 0 0
6033 444 4 0.0000000000000000e+00 2.5366499999999998e+00 1.0256300000000000e+01 2.3926400000000001e+00 0 0 0
6035 444 4 0.0000000000000000e+00 8.4509000000000001e-01 1.0256300000000000e+01 4.7824499999999999e+00 0 0 0
6161 444 4 0.0000000000000000e+00 7.6121999999999996e+00 1.0256300000000000e+01 2.3926400000000001e+00 0 0 0
6163 444 4 0.0000000000000000e+00 5.9206399999999997e+00 1.0256300000000000e+01 4.7824499999999999e+00 0 0 0
6134 444 4 0.0000000000000000e+00 9.3040500000000002e+00 1.4651900000000000e+00 0.0000000000000000e+00 0 0 0
6136 444 4 1.3890000000000000e-02 9.3041000000000000e+00 1.4651900000000000e+00 7.1781499999999996e+00 0 0 0
6138 444 4 0.0000000000000000e+00 1.0149970000000000e+01 0.0000000000000000e+00 2.3926400000000001e+00 0 0 0
6140 444 4 0.0000000000000000e+00 8.4584100000000007e+00 0.0000000000000000e+00 4.7824499999999999e+00 0 0 0
6142 444 4 0.0000000000000000e+00 9.3040500000000002e+00 4.3955599999999997e+00 0.0000000000000000e+00 0 0 0
6144 444 4 1.3890000000000000e-02 9.3041000000000000e+00 4.3955599999999997e+00 7.1781600000000001e+00 0 0 0
6146 444 4 0.0000000000000000e+00 1.0149970000000000e+01 2.9303699999999999e+00 2.3926400000000001e+00 0 0 0
6148 444 4 0.0000000000000000e+00 8.4584200000000003e+00 2.9303699999999999e+00 4.7824400000000002e+00 0 0 0
6150 444 4 0.0000000000000000e+00 9.3040500000000002e+00 7.3259299999999996e+00 0.0000000000000000e+00 0 0 0
6152 444 4 1.3890000000000000e-02 9.3041000000000000e+00 7.3259299999999996e+00 7.1781499999999996e+00 0 0 0
6154 444 4 0.0000000000000000e+00 1.0149970000000000e+01 5.8607399999999998e+00 2.3926400000000001e+00 0 0 0
6156 444 4 0.0000000000000000e+00 8.4584100000000007e+00 5.8607399999999998e+00 4.7824499999999999e+00 0 0 0
6267 444 4 0.0000000000000000e+00 1.0996190000000000e+01 1.4651900000000000e+00 4.7824200000000001e+00 0 0 0
6275 444 4 0.0000000000000000e+00 1.0996190000000000e+01 4.3955599999999997e+00 4.7824499999999999e+00 0 0 0
6283 444 4 0.0000000000000000e+00 1.0996190000000000e+01 7.3259299999999996e+00 4.7824200000000001e+00 0 0 0
6162 444 4 0.0000000000000000e+00 1.0149970000000000e+01 8.7911099999999998e+00 2.3926400000000001e+00 0 0 0
6164 444 4 0.0000000000000000e+00 8.4584200000000003e+00 8.7911099999999998e+00 4.7824400000000002e+00 0 0 0
6158 444 4 0.0000000000000000e+00 9.3040500000000002e+00 1.0256300000000000e+01 0.0000000000000000e+00 0 0 0
6160 444 4 1.3890000000000000e-02 9.3041000000000000e+00 1.0256300000000000e+01 7.1781600000000001e+00 0 0 0
6291 444 4 0.0000000000000000e+00 1.0996190000000000e+01 1.0256300000000000e+01 4.7824499999999999e+00 0 0 0
6261 444 4 0.0000000000000000e+00 1.1841820000000000e+01 0.0000000000000000e+00 0.0000000000000000e+00 0 0 0
6262 444 4 0.0000000000000000e+00 1.4379600000000000e+01 1.4651900000000000e+00 0.0000000000000000e+00 0 0 0
6263 444 4 1.3890000000000000e-02 1.1841870000000000e+01 0.0000000000000000e+00 7.1781499999999996e+00 0 0 0
6264 444 4 1.3890000000000000e-02 1.4379650000000000e+01 1.4651900000000000e+00 7.1781499999999996e+00 0 0 0
6265 444 4 0.0000000000000000e+00 1.2687749999999999e+01 1.4651900000000000e+00 2.3926400000000001e+00 0 0 0
6266 444 4 0.0000000000000000e+00 1.5225519999999999e+01 0.0000000000000000e+00 2.3926400000000001e+00 0 0 0
6268 444 4 0.0000000000000000e+00 1.3533960000000000e+01 0.0000000000000000e+00 4.7824499999999999e+00 0 0 0
6269 444 4 0.0000000000000000e+00 1.1841820000000000e+01 2.9303699999999999e+00 0.0000000000000000e+00 0 0 0
6270 444 4 0.0000000000000000e+00 1.4379600000000000e+01 4.3955599999999997e+00 0.0000000000000000e+00 0 0 0
6271 444 4 1.3890000000000000e-02 1.1841870000000000e+01 2.9303699999999999e+00 7.1781899999999998e+00 0 0 0
6272 444 4 1.3890000000000000e-02 1.4379650000000000e+01 4.3955599999999997e+00 7.1781600000000001e+00 0 0 0
6273 444 4 0.0000000000000000e+00 1.2687749999999999e+01 4.3955599999999997e+00 2.3926400000000001e+00 0 0 0
6274 444 4 0.0000000000000000e+00 1.5225519999999999e+01 2.9303699999999999e+00 2.3926400000000001e+00 0 0 0
6276 444 4 0.0000000000000000e+00 1.3533970000000000e+01 2.9303699999999999e+00 4.7824400000000002e+00 0 0 0
6277 444 4 0.0000000000000000e+00 1.1841820000000000e+01 5.8607399999999998e+00 0.0000000000000000e+00 0 0 0
6278 444 4 0.0000000000000000e+00 1.4379600000000000e+01 7.3259299999999996e+00 0.0000000000000000e+00 0 0 0
6279 444 4 1.3890000000000000e-02 1.1841870000000000e+01 5.8607399999999998e+00 7.1781499999999996e+00 0 0 0
6280 444 4 1.3890000000000000e-02 1.4379650000000000e+01 7.3259299999999996e+00 7.1781499999999996e+00 0 0 0
6281 444 4 0.0000000000000000e+00 1.2687749999999999e+01 7.3259299999999996e+00 2.3926400000000001e+00 0 0 0
6282 444 4 0.0000000000000000e+00 1.5225519999999999e+01 5.8607399999999998e+00 2.3926400000000001e+00 0 0 0
6284 444 4 0.0000000000000000e+00 1.3533960000000000e+01 5.8607399999999998e+00 4.7824499999999999e+00 0 0 0
6285 444 4 0.0000000000000000e+00 1.1841820000000000e+01 8.7911099999999998e+00 0.0000000000000000e+00 0 0 0
6287 444 4 1.3890000000000000e-02 1.1841870000000000e+01 8.7911099999999998e+00 7.1781899999999998e+00 0 0 0
6290 444 4 0.0000000000000000e+00 1.5225519999999999e+01 8.7911099999999998e+00 2.3926400000000001e+00 0 0 0
6292 444 4 0.0000000000000000e+00 1.3533970000000000e+01 8.7911099999999998e+00 4.7824400000000002e+00 0 0 0
6286 444 4 0.0000000000000000e+00 1.4379600000000000e+01 1.0256300000000000e+01 0.0000000000000000e+00 0 0 0
6288 444 4 1.3890000000000000e-02 1.4379650000000000e+01 1.0256300000000000e+01 7.1781600000000001e+00 0 0 0
6289 444 4 0.0000000000000000e+00 1.2687749999999999e+01 1.0256300000000000e+01 2.3926400000000001e+00 0 0 0
4126 444 2 -8.2999999999999996e-01 6.0410902911435320e+00 5.2128647091926297e+00 1.1657621980023031e+01 6 2 0
4127 444 1 4.1499999999999998e-01 5.3855941025434362e+00 5.4526595974993821e+00 1.2312645780545825e+01 6 2 0
4897 444 2 -8.2999999999999996e-01 3.8598800960580038e+00 3.5950062847328326e+00 1.0315407306488536e+01 -5 2 0
4128 444 1 4.1499999999999998e-01 6.7593737661241580e+00 5.8293194223384130e+00 1.1800050225876284e+01 6 2 0
1786 444 2 -8.2999999999999996e-01 5.2351737860783878e+00 1.0875710158544905e+01 1.1358225714847300e+01 -1 -1 0
1788 444 1 4.1499999999999998e-01 5.6163937529030123e+00 1.0124197323512576e+01 1.0904208431091174e+01 -1 -1 0
709 444 2 -8.2999999999999996e-01 3.7683558055547048e+00 7.2587792909000513e+00 1.0613892938808252e+01 3 -4 0
5913 444 1 4.1499999999999998e-01 6.2122030053026585e+00 3.5804665945898169e+00 1.4698563517173135e+01 2 5 0
1429 444 2 -8.2999999999999996e-01 4.7560761847296291e+00 2.8438443551811101e+00 1.4876183141396345e+01 2 2 0
1430 444 1 4.1499999999999998e-01 4.9642739653222376e+00 2.1658602360448627e+00 1.5519007827300930e+01 2 2 0
1431 444 1 4.1499999999999998e-01 4.2124296200421476e+00 2.3991300219121512e+00 1.4225867990952551e+01 2 2 0
5300 444 1 4.1499999999999998e-01 6.7415545791554727e+00 8.0918142723162454e+00 1.1015225651248020e+01 2 -1 0
4899 444 1 4.1499999999999998e-01 3.1884689859079054e+00 4.0057173650789784e+00 1.0860159949220643e+01 -5 2 0
5301 444 1 4.1499999999999998e-01 5.3598324900153589e+00 7.9527117716141094e+00 1.0412407343060226e+01 2 -1 0
5299 444 2 -8.2999999999999996e-01 6.1246727322790466e+00 8.5280574009004937e+00 1.0427534744664369e+01 2 -1 0
5911 444 2 -8.2999999999999996e-01 6.8509237523629682e+00 4.1689580349055948e+00 1.4296138965144863e+01 2 5 0
3121 444 2 -8.2999999999999996e-01 3.8351594372626434e+00 8.4470634933150208e+00 1.3856856845340054e+01 2 7 0
295 444 2 -8.2999999999999996e-01 3.2276771354413016e+00 8.0378668872331138e-01 1.2861619300258198e+01 -2 -5 0
297 444 1 4.1499999999999998e-01 2.4693978532037875e+00 1.3870569766055303e+00 1.2893871619789543e+01 -2 -5 0
3123 444 1 4.1499999999999998e-01 4.3485686265015140e+00 9.0017660070030132e+00 1.3269534082580808e+01 2 7 0
296 444 1 4.1499999999999998e-01 3.6084618899375451e+00 9.5284018530099046e-01 1.1996161089794340e+01 -2 -5 0
5912 444 1 4.1499999999999998e-01 6.6262439501202124e+00 4.1668941713716645e+00 1.3365683851785811e+01 2 5 0
2712 444 1 4.1499999999999998e-01 6.7864749572916399e+00 3.5596559989064414e+00 1.1090389318142309e+01 2 1 0
4898 444 1 4.1499999999999998e-01 4.6298098403652421e+00 4.1537610703487857e+00 1.0421394746875515e+01 -5 2 0
1702 444 2 -8.2999999999999996e-01 3.7744721555651388e+00 5.8597917250925597e+00 1.3136884397360847e+01 2 0 0
1704 444 1 4.1499999999999998e-01 3.7400794110730171e+00 6.5885403107826388e+00 1.3756541698522886e+01 2 0 0
3122 444 1 4.1499999999999998e-01 4.3973373391725126e+00 8.3221560576131566e+00 1.4621439148530101e+01 2 7 0
1703 444 1 4.1499999999999998e-01 3.3387708908110580e+00 5.1382681924091775e+00 1.3590536456827381e+01 2 0 0
3195 444 1 4.1499999999999998e-01 4.0769191984630275e+00 1.5333292802899026e+00 9.9538595223473774e+00 -1 1 0
148 444 2 -8.2999999999999996e-01 6.2156198039727890e+00 1.0964571613247017e+01 1.3795995541704826e+01 2 2 0
149 444 1 4.1499999999999998e-01 7.0185991948048940e+00 1.0679076736514043e+01 1.4231826542523116e+01 2 2 0
711 444 1 4.1499999999999998e-01 3.8520442632408507e+00 6.9677722236734381e+00 1.1521936480998127e+01 3 -4 0
1290 444 1 4.1499999999999998e-01 3.4087901412478278e-01 1.9038677546699343e+00 1.2746367647118154e+01 3 0 0
1288 444 2 -8.2999999999999996e-01 1.1630351110390647e+00 2.3899012041062040e+00 1.2682624404048612e+01 3 0 0
710 444 1 4.1499999999999998e-01 3.0437277647455372e+00 6.7417500475392247e+00 1.0262002501301357e+01 3 -4 0
2710 444 2 -8.2999999999999996e-01 7.2062172089526788e+00 3.0891187748374040e+00 1.0370220261013177e+01 2 1 0
1457 444 1 4.1499999999999998e-01 2.0508475036826912e+00 1.0224942844679308e+01 1.1008942509690888e+01 -4 -2 0
1458 444 1 4.1499999999999998e-01 2.3251760921130793e+00 8.7742785420468064e+00 1.0673960609133726e+01 -4 -2 0
3388 444 2 -8.2999999999999996e-01 1.0210460484779493e+00 7.6201955119144529e+00 1.3817285752124688e+01 1 3 0
3389 444 1 4.1499999999999998e-01 1.9199689398508732e+00 7.9244999432681285e+00 1.3692510447433488e+01 1 3 0
1616 444 1 4.1499999999999998e-01 7.1466668804974605e+00 1.4003781167884113e+00 1.0206589901899193e+01 3 1 0
1289 444 1 4.1499999999999998e-01 8.9816010079292941e-01 3.2803390448529113e+00 1.2451986728129036e+01 3 0 0
1456 444 2 -8.2999999999999996e-01 1.6118307092123443e+00 9.3957917962652751e+00 1.0819190693316388e+01 -4 -2 0
3390 444 1 4.1499999999999998e-01 4.8197906891505465e-01 8.3973361018669852e+00 1.3670005761679432e+01 1 3 0
910 444 2 -8.2999999999999996e-01 1.3261577840439571e+00 5.8652877979746041e+00 1.0070187568004570e+01 -1 -5 0
3533 444 1 4.1499999999999998e-01 3.9931589868157369e-01 6.0616034992531826e+00 1.4174038797002721e+01 -1 2 0
911 444 1 4.1499999999999998e-01 9.0531330910806829e-01 5.0231146308845434e+00 1.0243006552614874e+01 -1 -5 0
270 444 1 4.1499999999999998e-01 1.0013957773248430e+00 4.5859671616685773e+00 1.5176514252353126e+01 3 2 0
2351 444 1 4.1499999999999998e-01 7.1525689876619349e+00 5.6045633857341768e+00 1.5735425816415168e+01 1 -3 0
1615 444 2 -8.2999999999999996e-01 7.3751897923274568e+00 4.7104049785354102e-01 1.0188130367275566e+01 3 1 0
1270 444 2 -8.2999999999999996e-01 1.9815445407530017e+00 1.1293472969720177e+01 1.5632797766093903e+01 1 -1 0
1787 444 1 4.1499999999999998e-01 5.6182815779406399e+00 1.0846079857473361e+01 1.2234914015155937e+01 -1 -1 0
5592 444 1 4.1499999999999998e-01 7.4982615622768058e+00 1.0282439165173850e+01 1.6032743546513665e+01 -3 7 0
4179 444 1 4.1499999999999998e-01 7.5966037498490451e+00 9.7553648025995052e+00 1.0424081514392546e+01 1 3 0
3306 444 1 4.1499999999999998e-01 1.4151940007798565e+00 1.0802960305288051e+01 1.2685461536549852e+01 4 -3 0
3193 444 2 -8.2999999999999996e-01 4.3032561581900577e+00 7.0050017931538466e-01 1.0367864117496110e+01 -1 1 0
912 444 1 4.1499999999999998e-01 6.3507248130583971e-01 6.5123637430065910e+00 1.0211346314015172e+01 -1 -5 0
2391 444 1 4.1499999999999998e-01 3.9592527358671763e+00 7.3105186018637482e+00 1.6238165376715489e+01 -2 0 0
1125 444 1 4.1499999999999998e-01 6.8821881082884300e+00 6.7221789515426456e-01 1.5167280063621879e+01 0 -1 0
268 444 2 -8.2999999999999996e-01 1.5038588242198319e+00 4.4045302498702092e+00 1.5970771641422031e+01 3 2 0
269 444 1 4.1499999999999998e-01 2.1521864848996248e+00 5.1076153759097052e+00 1.6010456565905340e+01 3 2 0
1123 444 2 -8.2999999999999996e-01 6.9830154658883039e+00 1.1937765771826738e+00 1.5963547892371436e+01 0 -1 0
1124 444 1 4.1499999999999998e-01 7.5692799492945433e+00 1.9069288837813843e+00 1.5710684874363615e+01 0 -1 0
1335 444 1 4.1499999999999998e-01 3.1815865797462415e+00 3.0185276357422025e-01 1.6055589704627945e+01 0 1 0
1993 444 2 -8.2999999999999996e-01 5.3330235733547369e+00 7.9904677472432333e+00 1.5870128389163302e+01 -1 -2 0
1995 444 1 4.1499999999999998e-01 5.9966006838715531e+00 7.3169831868021022e+00 1.6019513420441449e+01 -1 -2 0
150 444 1 4.1499999999999998e-01 5.5838977751039893e+00 1.1076793495102214e+01 1.4506323203762713e+01 2 2 0
3194 444 1 4.1499999999999998e-01 5.2252213791942834e+00 5.6614346237871627e-01 1.0148408680193770e+01 -1 1 0
5091 444 1 4.1499999999999998e-01 7.4538782008793243e+00 8.1842042448948427e-01 1.3068782388943529e+01 -2 2 0
3153 444 1 4.1499999999999998e-01 3.6355376210671437e+00 1.1546031121978942e+01 1.1668546926852221e+01 -2 -4 0
5089 444 2 -8.2999999999999996e-01 7.1565097303783034e+00 1.5324073482928438e-01 1.3689540166879011e+01 -2 2 0
3304 444 2 -8.2999999999999996e-01 7.2094181129916457e-01 1.0900038927164731e+01 1.3337245349821666e+01 4 -3 0
3305 444 1 4.1499999999999998e-01 1.1845114755723314e+00 1.1051263943026665e+01 1.4160936583360652e+01 4 -3 0
1271 444 1 4.1499999999999998e-01 1.1752607623004347e+00 1.1164337845311156e+01 1.6132259999975687e+01 1 -1 0
4359 444 1 4.1499999999999998e-01 1.0016107355318304e+01 7.7432759704069438e+00 1.4427316146772206e+01 -3 0 0
4690 444 2 -8.2999999999999996e-01 7.8879706765480586e+00 7.3426948136681069e+00 1.1888446258317288e+01 0 6 0
4357 444 2 -8.2999999999999996e-01 9.0923649208601507e+00 7.6640248762651986e+00 1.4189300595559958e+01 -3 0 0
5590 444 2 -8.2999999999999996e-01 8.0928850403376256e+00 1.0039121973312136e+01 1.5323200284519910e+01 -3 7 0
5591 444 1 4.1499999999999998e-01 8.9022087381679960e+00 9.7830237186909681e+00 1.5765513450546580e+01 -3 7 0
4358 444 1 4.1499999999999998e-01 8.6611025941541264e+00 8.3768835181165251e+00 1.4660551834108066e+01 -3 0 0
4691 444 1 4.1499999999999998e-01 8.1241663985578771e+00 7.4400082188183534e+00 1.2810928673230775e+01 0 6 0
3065 444 1 4.1499999999999998e-01 9.9173757581739270e+00 5.4380888842097344e+00 1.3469779483122400e+01 -2 0 0
3064 444 2 -8.2999999999999996e-01 1.0265446158359508e+01 5.1752135936958501e+00 1.2617737434024260e+01 -2 0 0
3127 444 2 -8.2999999999999996e-01 1.4772393161601212e+01 1.8260190608997404e+00 1.0390847980161155e+01 3 -3 0
2711 444 1 4.1499999999999998e-01 8.0721382875740648e+00 3.4898892240971962e+00 1.0294086750928917e+01 2 1 0
4177 444 2 -8.2999999999999996e-01 8.5433564787977865e+00 9.8958948336026573e+00 1.0412122442374899e+01 1 3 0
3515 444 1 4.1499999999999998e-01 9.7667069851253707e+00 9.4264387977884401e-01 1.1943244496590342e+01 1 0 0
3514 444 2 -8.2999999999999996e-01 9.6980352018931875e+00 1.3574939051688231e+00 1.2803137858755568e+01 1 0 0
3516 444 1 4.1499999999999998e-01 1.0375212119237577e+01 9.3242934481099748e-01 1.3329430793591051e+01 1 0 0
4692 444 1 4.1499999999999998e-01 8.7206910005747424e+00 7.1878136296422186e+00 1.1442553025830735e+01 0 6 0
1522 444 2 -8.2999999999999996e-01 9.9851299111467888e+00 4.1863353284318814e+00 1.0202679851873642e+01 2 2 0
1523 444 1 4.1499999999999998e-01 1.0726801756876123e+01 3.6857940503748772e+00 9.8626604884395821e+00 2 2 0
2764 444 2 -8.2999999999999996e-01 1.0824766551151519e+01 3.5550416245456351e-01 1.0629680299045338e+01 5 -1 0
1524 444 1 4.1499999999999998e-01 1.0194100355903732e+01 4.3276704851948189e+00 1.1126036561279300e+01 2 2 0
3066 444 1 4.1499999999999998e-01 1.1162352734263381e+01 5.5095046380099744e+00 1.2611392913643364e+01 -2 0 0
2858 444 1 4.1499999999999998e-01 1.3617859025983712e+01 7.6327409178683103e+00 1.0883817753718171e+01 0 4 0
3539 444 1 4.1499999999999998e-01 1.1726509935638250e+01 1.7603812531247049e+00 1.0353208182733745e+01 6 -3 0
2859 444 1 4.1499999999999998e-01 1.2784432759274916e+01 7.9669292342614897e+00 9.6649600224150891e+00 0 4 0
2857 444 2 -8.2999999999999996e-01 1.2983583510432810e+01 7.2558456285630033e+00 1.0274001054524346e+01 0 4 0
3045 444 1 4.1499999999999998e-01 1.1112082305902119e+01 6.8158824268046807e+00 1.0118493207624226e+01 2 0 0
2314 444 2 -8.2999999999999996e-01 1.2903508458596200e+01 4.8275115393453207e+00 1.1732583999197976e+01 2 2 0
3538 444 2 -8.2999999999999996e-01 1.2275232460305316e+01 2.5430020944192915e+00 1.0404596474800668e+01 6 -3 0
1180 444 2 -8.2999999999999996e-01 1.1609433390202476e+01 9.7930711385076510e+00 1.0442872961319312e+01 3 1 0
2315 444 1 4.1499999999999998e-01 1.2908937191491239e+01 5.5976131289255529e+00 1.1164124271095785e+01 2 2 0
2316 444 1 4.1499999999999998e-01 1.2863754939834253e+01 4.0847690940006238e+00 1.1130100773602615e+01 2 2 0
3043 444 2 -8.2999999999999996e-01 1.0172790112954793e+01 6.9983527311719165e+00 1.0144321468884566e+01 2 0 0
3044 444 1 4.1499999999999998e-01 9.7594885107356415e+00 6.1361764237038798e+00 1.0098866433130310e+01 2 0 0
2261 444 1 4.1499999999999998e-01 1.3102625735859679e+01 3.8848791197517558e+00 1.3138379695656175e+01 -1 0 0
2260 444 2 -8.2999999999999996e-01 1.3230596719420822e+01 3.2571833337565024e+00 1.3849613349534792e+01 -1 0 0
4086 444 1 4.1499999999999998e-01 1.3277918734758094e+01 1.7608206007071550e+00 1.5469176580500934e+01 1 3 0
4084 444 2 -8.2999999999999996e-01 1.2875031589761814e+01 1.0484188553516067e+00 1.5965561554256482e+01 1 3 0
3540 444 1 4.1499999999999998e-01 1.3135320491176600e+01 2.2534722879425710e+00 1.0100205467583685e+01 6 -3 0
474 444 1 4.1499999999999998e-01 1.1565386431561505e+01 6.1491603737995275e+00 1.5428166841086691e+01 0 3 0
472 444 2 -8.2999999999999996e-01 1.1992771778743046e+01 6.8889011808102323e+00 1.4996475762424112e+01 0 3 0
473 444 1 4.1499999999999998e-01 1.2817237216223637e+01 6.9994610750064528e+00 1.5470042163643940e+01 0 3 0
2262 444 1 4.1499999999999998e-01 1.3998923578091537e+01 3.5807687296829016e+00 1.4319930476478017e+01 -1 0 0
4607 444 1 4.1499999999999998e-01 1.0705383977060006e+01 3.9723695249826254e+00 1.5923856285921838e+01 -1 3 0
4178 444 1 4.1499999999999998e-01 8.9164581660112816e+00 9.0147709849042172e+00 1.0386660471835999e+01 1 3 0
1181 444 1 4.1499999999999998e-01 1.1777551544441007e+01 9.3894496592859262e+00 1.1294376260204201e+01 3 1 0
2426 444 1 4.1499999999999998e-01 1.1866860330111955e+01 8.0354807591744049e+00 1.3347892015662040e+01 3 -2 0
3113 444 1 4.1499999999999998e-01 1.4762998382105383e+01 5.6631815719753789e+00 1.6057606227179576e+01 7 3 0
5798 444 1 4.1499999999999998e-01 9.4836927025431024e+00 2.9672827265232087e+00 1.4183438260092663e+01 4 -3 0
1182 444 1 4.1499999999999998e-01 1.0715192333560493e+01 1.0128125872580878e+01 1.0508471885675405e+01 3 1 0
5797 444 2 -8.2999999999999996e-01 9.2629247715774738e+00 3.0805988409623124e+00 1.5107913243256267e+01 4 -3 0
5799 444 1 4.1499999999999998e-01 8.4493604755791978e+00 3.5848686870811464e+00 1.5100302399536631e+01 4 -3 0
4871 444 1 4.1499999999999998e-01 8.8594741831102670e+00 1.1420620353965365e+01 1.0360303387090196e+01 1 4 0
2425 444 2 -8.2999999999999996e-01 1.1796959019547495e+01 8.9193773965484873e+00 1.2987235909091565e+01 3 -2 0
2427 444 1 4.1499999999999998e-01 1.2316812204222542e+01 9.4622217072661634e+00 1.3579945648292925e+01 3 -2 0
2233 444 2 -8.2999999999999996e-01 1.4229072127984493e+01 9.9061076387575877e+00 1.4405230876478388e+01 -3 0 0
2234 444 1 4.1499999999999998e-01 1.5159372575619111e+01 9.6884798038395914e+00 1.4463636995187333e+01 -3 0 0
2107 444 2 -8.2999999999999996e-01 1.5224513916911151e+01 8.5458101651540126e+00 1.1426496022255682e+01 2 -3 0
1617 444 1 4.1499999999999998e-01 8.3086205765890817e+00 4.5758993867372172e-01 9.9765696001870623e+00 3 1 0
1210 444 2 -8.2999999999999996e-01 1.3745077753635226e+01 1.1414787209429248e+01 1.0278203371553394e+01 -5 -1 0
3884 444 1 4.1499999999999998e-01 1.4507195090165780e+01 4.5589504314446477e-01 1.3365809069205490e+01 6 -4 0
1211 444 1 4.1499999999999998e-01 1.4430837727016447e+01 1.0853576606214892e+01 1.0640153349144514e+01 -5 -1 0
2235 444 1 4.1499999999999998e-01 1.3784002169515466e+01 9.1733341708217075e+00 1.4830892359082130e+01 -3 0 0
3883 444 2 -8.2999999999999996e-01 1.3987175545581417e+01 9.4230468106147491e-01 1.2726107946696096e+01 6 -4 0
1212 444 1 4.1499999999999998e-01 1.2963758101806306e+01 1.0861941761539230e+01 1.0266652837587319e+01 -5 -1 0
3128 444 1 4.1499999999999998e-01 1.4949235273991830e+01 9.1028393852722445e-01 1.0175469122252993e+01 3 -3 0
3129 444 1 4.1499999999999998e-01 1.4406069716300845e+01 1.7982407147004307e+00 1.1274741395141453e+01 3 -3 0
3885 444 1 4.1499999999999998e-01 1.3632936270328154e+01 1.6829938212118805e+00 1.3218172146829902e+01 6 -4 0
2766 444 1 4.1499999999999998e-01 1.1681434666834605e+01 2.5653213653931117e-01 1.1045079113925611e+01 5 -1 0
1069 444 2 -8.2999999999999996e-01 2.1675646469004071e+00 9.2587389540938148e+00 1.7265342616807260e+01 0 -3 0
1071 444 1 4.1499999999999998e-01 2.1169537318353182e+00 9.7235747812572235e+00 1.6430119232159957e+01 0 -3 0
2350 444 2 -8.2999999999999996e-01 7.1404740285791615e+00 6.1168057829192239e+00 1.6543938862012531e+01 1 -3 0
4139 444 1 4.1499999999999998e-01 5.5950911591575396e+00 1.1477749360150613e+01 1.6991005978871318e+01 -1 1 0
1678 444 2 -8.2999999999999996e-01 3.1485503440039225e-01 1.0981303508808917e+01 1.7664124173688155e+01 2 1 0
1584 444 1 4.1499999999999998e-01 4.1331094223641612e-01 2.2462284351942605e+00 1.8662157812624148e+01 -4 0 0
4416 444 1 4.1499999999999998e-01 6.9924762028297949e-01 6.6338087011484053e+00 1.8543609638521968e+01 -3 -5 0
2390 444 1 4.1499999999999998e-01 2.5640946397647717e+00 7.3338197194190311e+00 1.6825435670351283e+01 -2 0 0
1155 444 1 4.1499999999999998e-01 3.6142327621301238e+00 2.7117474529476260e+00 1.6735091938623466e+01 -1 -2 0
5739 444 1 4.1499999999999998e-01 3.6875441065994345e+00 2.9950830756168045e+00 2.0285424704694215e+01 -3 6 0
4173 444 1 4.1499999999999998e-01 2.2686601979471548e+00 9.2647771838068511e+00 2.0831324507621773e+01 0 -3 0
4172 444 1 4.1499999999999998e-01 2.3249178701773623e+00 7.9539360033742961e+00 2.1586589850293500e+01 0 -3 0
4171 444 2 -8.2999999999999996e-01 1.8162819287837939e+00 8.7609877682078956e+00 2.1507920454348291e+01 0 -3 0
878 444 1 4.1499999999999998e-01 4.5214436986085405e+00 7.0318020253893589e+00 2.0504457179524419e+01 3 1 0
2595 444 1 4.1499999999999998e-01 3.8645092743917839e+00 5.1316220234725938e+00 1.8595749375864216e+01 -3 -2 0
2593 444 2 -8.2999999999999996e-01 3.9439376724943278e+00 4.2119543228511365e+00 1.8848997838004937e+01 -3 -2 0
2594 444 1 4.1499999999999998e-01 3.0648627437660196e+00 3.9654348821291650e+00 1.9136552650644951e+01 -3 -2 0
5527 444 2 -8.2999999999999996e-01 4.8168441115349907e+00 9.4014797260187066e+00 2.2847364788311701e+01 -5 1 0
5528 444 1 4.1499999999999998e-01 3.9988052835236148e+00 9.6542847393251208e+00 2.3275307462401170e+01 -5 1 0
2870 444 1 4.1499999999999998e-01 1.7688954768960818e+00 1.0830909231522602e+01 2.3946064839540753e+01 4 1 0
2869 444 2 -8.2999999999999996e-01 2.4230358706189064e+00 1.0149629607145574e+01 2.3790529591720283e+01 4 1 0
5529 444 1 4.1499999999999998e-01 4.5768094831451007e+00 8.6625583452723180e+00 2.2288248060613370e+01 -5 1 0
5424 444 1 4.1499999999999998e-01 4.4485628550924838e-01 4.3020640832811381e+00 2.1441979289744740e+01 4 -2 0
3023 444 1 4.1499999999999998e-01 2.0077031217691093e+00 5.5852733706226285e+00 2.2921727753787739e+01 -4 2 0
2871 444 1 4.1499999999999998e-01 2.0530874201531741e+00 9.6181696145741640e+00 2.3085603441980780e+01 4 1 0
3022 444 2 -8.2999999999999996e-01 2.5350505141111435e+00 6.0162386703530109e+00 2.3594338827118975e+01 -4 2 0
5422 444 2 -8.2999999999999996e-01 7.6879313478604916e-01 5.2023733334298132e+00 2.1414755498468082e+01 4 -2 0
5423 444 1 4.1499999999999998e-01 9.5559545404104496e-01 5.3623403559339380e+00 2.0489688769667801e+01 4 -2 0
2352 444 1 4.1499999999999998e-01 7.0646301836560914e+00 5.4644104597266665e+00 1.7240257839937644e+01 1 -3 0
2389 444 2 -8.2999999999999996e-01 3.2051144589387115e+00 6.7498126469096187e+00 1.6420144020314048e+01 -2 0 0
879 444 1 4.1499999999999998e-01 4.3094066863424052e+00 6.3270946208135861e+00 2.1827454907059064e+01 3 1 0