LAMMPS data file via write_data, version 11 Aug 2017, timestep = 500000

7176 atoms
4 atom types
4000 bonds
1 bond types
2000 angles
1 angle types

0.0000000000000000e+00 4.5679949999999998e+01 xlo xhi
0.0000000000000000e+00 4.6885919999999999e+01 ylo yhi
0.0000000000000000e+00 6.5000000000000000e+01 zlo zhi

Masses

1 1.0079
2 15.9994
3 18.9984
4 107.868

Bond Coeffs # harmonic

1 450 0.9572

Angle Coeffs # harmonic

1 55 104.52

Atoms # full

6025 444 4 0.0000000000000000e+00 1.6907200000000000e+00 0.0000000000000000e+00 0.0000000000000000e+00 0 0 0
6026 444 4 0.0000000000000000e+00 4.2285000000000004e+00 1.4651900000000000e+00 0.0000000000000000e+00 0 0 0
6027 444 4 8.4290000000000004e-02 1.6907700000000001e+00 0.0000000000000000e+00 7.1781499999999996e+00 0 0 0
6028 444 4 8.3330000000000001e-02 4.2285500000000003e+00 1.4651900000000000e+00 7.1781499999999996e+00 0 0 0
6029 444 4 0.0000000000000000e+00 2.5366499999999998e+00 1.4651900000000000e+00 2.3926400000000001e+00 0 0 0
6030 444 4 0.0000000000000000e+00 5.0744199999999999e+00 0.0000000000000000e+00 2.3926400000000001e+00 0 0 0
6031 444 4 0.0000000000000000e+00 8.4509000000000001e-01 1.4651900000000000e+00 4.7824200000000001e+00 0 0 0
6032 444 4 0.0000000000000000e+00 3.3828600000000000e+00 0.0000000000000000e+00 4.7824499999999999e+00 0 0 0
6033 444 4 0.0000000000000000e+00 1.6907200000000000e+00 2.9303699999999999e+00 0.0000000000000000e+00 0 0 0
6034 444 4 0.0000000000000000e+00 4.2285000000000004e+00 4.3955599999999997e+00 0.0000000000000000e+00 0 0 0
6035 444 4 8.3330000000000001e-02 1.6907700000000001e+00 2.9303699999999999e+00 7.1781899999999998e+00 0 0 0
6036 444 4 8.3330000000000001e-02 4.2285500000000003e+00 4.3955599999999997e+00 7.1781600000000001e+00 0 0 0
6037 444 4 0.0000000000000000e+00 2.5366499999999998e+00 4.3955599999999997e+00 2.3926400000000001e+00 0 0 0
6038 444 4 0.0000000000000000e+00 5.0744199999999999e+00 2.9303699999999999e+00 2.3926400000000001e+00 0 0 0
6039 444 4 0.0000000000000000e+00 8.4509000000000001e-01 4.3955599999999997e+00 4.7824499999999999e+00 0 0 0
6040 444 4 0.0000000000000000e+00 3.3828700000000000e+00 2.9303699999999999e+00 4.7824400000000002e+00 0 0 0
6041 444 4 0.0000000000000000e+00 1.6907200000000000e+00 5.8607399999999998e+00 0.0000000000000000e+00 0 0 0
6042 444 4 0.0000000000000000e+00 4.2285000000000004e+00 7.3259299999999996e+00 0.0000000000000000e+00 0 0 0
6043 444 4 8.3330000000000001e-02 1.6907700000000001e+00 5.8607399999999998e+00 7.1781499999999996e+00 0 0 0
6044 444 4 8.3330000000000001e-02 4.2285500000000003e+00 7.3259299999999996e+00 7.1781499999999996e+00 0 0 0
6045 444 4 0.0000000000000000e+00 2.5366499999999998e+00 7.3259299999999996e+00 2.3926400000000001e+00 0 0 0
6046 444 4 0.0000000000000000e+00 5.0744199999999999e+00 5.8607399999999998e+00 2.3926400000000001e+00 0 0 0
6047 444 4 0.0000000000000000e+00 8.4509000000000001e-01 7.3259299999999996e+00 4.7824200000000001e+00 0 0 0
6048 444 4 0.0000000000000000e+00 3.3828600000000000e+00 5.8607399999999998e+00 4.7824499999999999e+00 0 0 0
6153 444 4 0.0000000000000000e+00 6.7662699999999996e+00 0.0000000000000000e+00 0.0000000000000000e+00 0 0 0
6155 444 4 8.3330000000000001e-02 6.7663200000000003e+00 0.0000000000000000e+00 7.1781499999999996e+00 0 0 0
6157 444 4 0.0000000000000000e+00 7.6121999999999996e+00 1.4651900000000000e+00 2.3926400000000001e+00 0 0 0
6159 444 4 0.0000000000000000e+00 5.9206399999999997e+00 1.4651900000000000e+00 4.7824200000000001e+00 0 0 0
6161 444 4 0.0000000000000000e+00 6.7662699999999996e+00 2.9303699999999999e+00 0.0000000000000000e+00 0 0 0
6163 444 4 8.3330000000000001e-02 6.7663200000000003e+00 2.9303699999999999e+00 7.1781899999999998e+00 0 0 0
6165 444 4 0.0000000000000000e+00 7.6121999999999996e+00 4.3955599999999997e+00 2.3926400000000001e+00 0 0 0
6167 444 4 0.0000000000000000e+00 5.9206399999999997e+00 4.3955599999999997e+00 4.7824499999999999e+00 0 0 0
6169 444 4 0.0000000000000000e+00 6.7662699999999996e+00 5.8607399999999998e+00 0.0000000000000000e+00 0 0 0
6171 444 4 8.3330000000000001e-02 6.7663200000000003e+00 5.8607399999999998e+00 7.1781499999999996e+00 0 0 0
6173 444 4 0.0000000000000000e+00 7.6121999999999996e+00 7.3259299999999996e+00 2.3926400000000001e+00 0 0 0
6175 444 4 0.0000000000000000e+00 5.9206399999999997e+00 7.3259299999999996e+00 4.7824200000000001e+00 0 0 0
6049 444 4 0.0000000000000000e+00 1.6907200000000000e+00 8.7911099999999998e+00 0.0000000000000000e+00 0 0 0
6050 444 4 0.0000000000000000e+00 4.2285000000000004e+00 1.0256300000000000e+01 0.0000000000000000e+00 0 0 0
6051 444 4 8.3330000000000001e-02 1.6907700000000001e+00 8.7911099999999998e+00 7.1781899999999998e+00 0 0 0
6052 444 4 8.3330000000000001e-02 4.2285500000000003e+00 1.0256300000000000e+01 7.1781600000000001e+00 0 0 0
6053 444 4 0.0000000000000000e+00 2.5366499999999998e+00 1.0256300000000000e+01 2.3926400000000001e+00 0 0 0
6054 444 4 0.0000000000000000e+00 5.0744199999999999e+00 8.7911099999999998e+00 2.3926400000000001e+00 0 0 0
6055 444 4 0.0000000000000000e+00 8.4509000000000001e-01 1.0256300000000000e+01 4.7824499999999999e+00 0 0 0
6056 444 4 0.0000000000000000e+00 3.3828700000000000e+00 8.7911099999999998e+00 4.7824400000000002e+00 0 0 0
6177 444 4 0.0000000000000000e+00 6.7662699999999996e+00 8.7911099999999998e+00 0.0000000000000000e+00 0 0 0
6179 444 4 8.3330000000000001e-02 6.7663200000000003e+00 8.7911099999999998e+00 7.1781899999999998e+00 0 0 0
6181 444 4 0.0000000000000000e+00 7.6121999999999996e+00 1.0256300000000000e+01 2.3926400000000001e+00 0 0 0
6183 444 4 0.0000000000000000e+00 5.9206399999999997e+00 1.0256300000000000e+01 4.7824499999999999e+00 0 0 0
6154 444 4 0.0000000000000000e+00 9.3040500000000002e+00 1.4651900000000000e+00 0.0000000000000000e+00 0 0 0
6156 444 4 8.3330000000000001e-02 9.3041000000000000e+00 1.4651900000000000e+00 7.1781499999999996e+00 0 0 0
6158 444 4 0.0000000000000000e+00 1.0149970000000000e+01 0.0000000000000000e+00 2.3926400000000001e+00 0 0 0
6160 444 4 0.0000000000000000e+00 8.4584100000000007e+00 0.0000000000000000e+00 4.7824499999999999e+00 0 0 0
6162 444 4 0.0000000000000000e+00 9.3040500000000002e+00 4.3955599999999997e+00 0.0000000000000000e+00 0 0 0
6164 444 4 8.3330000000000001e-02 9.3041000000000000e+00 4.3955599999999997e+00 7.1781600000000001e+00 0 0 0
6166 444 4 0.0000000000000000e+00 1.0149970000000000e+01 2.9303699999999999e+00 2.3926400000000001e+00 0 0 0
6168 444 4 0.0000000000000000e+00 8.4584200000000003e+00 2.9303699999999999e+00 4.7824400000000002e+00 0 0 0
6170 444 4 0.0000000000000000e+00 9.3040500000000002e+00 7.3259299999999996e+00 0.0000000000000000e+00 0 0 0
6172 444 4 8.3330000000000001e-02 9.3041000000000000e+00 7.3259299999999996e+00 7.1781499999999996e+00 0 0 0
6174 444 4 0.0000000000000000e+00 1.0149970000000000e+01 5.8607399999999998e+00 2.3926400000000001e+00 0 0 0
6176 444 4 0.0000000000000000e+00 8.4584100000000007e+00 5.8607399999999998e+00 4.7824499999999999e+00 0 0 0
6287 444 4 0.0000000000000000e+00 1.0996190000000000e+01 1.4651900000000000e+00 4.7824200000000001e+00 0 0 0
6295 444 4 0.0000000000000000e+00 1.0996190000000000e+01 4.3955599999999997e+00 4.7824499999999999e+00 0 0 0
6303 444 4 0.0000000000000000e+00 1.0996190000000000e+01 7.3259299999999996e+00 4.7824200000000001e+00 0 0 0
6281 444 4 0.0000000000000000e+00 1.1841820000000000e+01 0.0000000000000000e+00 0.0000000000000000e+00 0 0 0
6282 444 4 0.0000000000000000e+00 1.4379600000000000e+01 1.4651900000000000e+00 0.0000000000000000e+00 0 0 0
6283 444 4 8.3330000000000001e-02 1.1841870000000000e+01 0.0000000000000000e+00 7.1781499999999996e+00 0 0 0
6284 444 4 8.3330000000000001e-02 1.4379650000000000e+01 1.4651900000000000e+00 7.1781499999999996e+00 0 0 0
6285 444 4 0.0000000000000000e+00 1.2687749999999999e+01 1.4651900000000000e+00 2.3926400000000001e+00 0 0 0
6286 444 4 0.0000000000000000e+00 1.5225519999999999e+01 0.0000000000000000e+00 2.3926400000000001e+00 0 0 0
6288 444 4 0.0000000000000000e+00 1.3533960000000000e+01 0.0000000000000000e+00 4.7824499999999999e+00 0 0 0
6289 444 4 0.0000000000000000e+00 1.1841820000000000e+01 2.9303699999999999e+00 0.0000000000000000e+00 0 0 0
6290 444 4 0.0000000000000000e+00 1.4379600000000000e+01 4.3955599999999997e+00 0.0000000000000000e+00 0 0 0
6291 444 4 8.3330000000000001e-02 1.1841870000000000e+01 2.9303699999999999e+00 7.1781899999999998e+00 0 0 0
6292 444 4 8.3330000000000001e-02 1.4379650000000000e+01 4.3955599999999997e+00 7.1781600000000001e+00 0 0 0
6293 444 4 0.0000000000000000e+00 1.2687749999999999e+01 4.3955599999999997e+00 2.3926400000000001e+00 0 0 0
6294 444 4 0.0000000000000000e+00 1.5225519999999999e+01 2.9303699999999999e+00 2.3926400000000001e+00 0 0 0
6296 444 4 0.0000000000000000e+00 1.3533970000000000e+01 2.9303699999999999e+00 4.7824400000000002e+00 0 0 0
6297 444 4 0.0000000000000000e+00 1.1841820000000000e+01 5.8607399999999998e+00 0.0000000000000000e+00 0 0 0
6298 444 4 0.0000000000000000e+00 1.4379600000000000e+01 7.3259299999999996e+00 0.0000000000000000e+00 0 0 0
6299 444 4 8.3330000000000001e-02 1.1841870000000000e+01 5.8607399999999998e+00 7.1781499999999996e+00 0 0 0
6300 444 4 8.3330000000000001e-02 1.4379650000000000e+01 7.3259299999999996e+00 7.1781499999999996e+00 0 0 0
6301 444 4 0.0000000000000000e+00 1.2687749999999999e+01 7.3259299999999996e+00 2.3926400000000001e+00 0 0 0
6302 444 4 0.0000000000000000e+00 1.5225519999999999e+01 5.8607399999999998e+00 2.3926400000000001e+00 0 0 0
6304 444 4 0.0000000000000000e+00 1.3533960000000000e+01 5.8607399999999998e+00 4.7824499999999999e+00 0 0 0
6178 444 4 0.0000000000000000e+00 9.3040500000000002e+00 1.0256300000000000e+01 0.0000000000000000e+00 0 0 0
6180 444 4 8.3330000000000001e-02 9.3041000000000000e+00 1.0256300000000000e+01 7.1781600000000001e+00 0 0 0
6182 444 4 0.0000000000000000e+00 1.0149970000000000e+01 8.7911099999999998e+00 2.3926400000000001e+00 0 0 0
6184 444 4 0.0000000000000000e+00 8.4584200000000003e+00 8.7911099999999998e+00 4.7824400000000002e+00 0 0 0
6311 444 4 0.0000000000000000e+00 1.0996190000000000e+01 1.0256300000000000e+01 4.7824499999999999e+00 0 0 0
6305 444 4 0.0000000000000000e+00 1.1841820000000000e+01 8.7911099999999998e+00 0.0000000000000000e+00 0 0 0
6306 444 4 0.0000000000000000e+00 1.4379600000000000e+01 1.0256300000000000e+01 0.0000000000000000e+00 0 0 0
6307 444 4 8.3330000000000001e-02 1.1841870000000000e+01 8.7911099999999998e+00 7.1781899999999998e+00 0 0 0
6308 444 4 8.3330000000000001e-02 1.4379650000000000e+01 1.0256300000000000e+01 7.1781600000000001e+00 0 0 0
6309 444 4 0.0000000000000000e+00 1.2687749999999999e+01 1.0256300000000000e+01 2.3926400000000001e+00 0 0 0
6310 444 4 0.0000000000000000e+00 1.5225519999999999e+01 8.7911099999999998e+00 2.3926400000000001e+00 0 0 0
6312 444 4 0.0000000000000000e+00 1.3533970000000000e+01 8.7911099999999998e+00 4.7824400000000002e+00 0 0 0
3062 444 1 4.1499999999999998e-01 2.9087932793548794e+00 1.7319585604318677e+00 1.0701064163343180e+01 1 -2 0
3063 444 1 4.1499999999999998e-01 4.0343209258055124e+00 9.8140886186619547e-01 1.0021536413909272e+01 1 -2 0
3061 444 2 -8.2999999999999996e-01 3.8631272997402339e+00 1.6935623062114067e+00 1.0637784825441134e+01 1 -2 0
3395 444 1 4.1499999999999998e-01 3.1205913767863738e+00 5.7962397391705220e+00 1.1545067991562595e+01 -2 -1 0
3394 444 2 -8.2999999999999996e-01 3.8283133119315673e+00 6.2394657364522157e+00 1.2012948591879885e+01 -2 -1 0
3396 444 1 4.1499999999999998e-01 4.3955633671418095e+00 6.5814471422408731e+00 1.1321929088005616e+01 -2 -1 0
4306 444 2 -8.2999999999999996e-01 5.8854531618292834e+00 6.9661444532002808e+00 1.0393259784356783e+01 1 0 0
4308 444 1 4.1499999999999998e-01 6.3118852597046837e+00 7.7023555864613709e+00 1.0831872197663371e+01 1 0 0
3673 444 2 -8.2999999999999996e-01 7.5892260146506310e+00 9.7056886590981701e+00 1.4519373734301928e+01 -1 -1 0
4307 444 1 4.1499999999999998e-01 6.6000853155606878e+00 6.3644639879543137e+00 1.0184661078082851e+01 1 0 0
3674 444 1 4.1499999999999998e-01 7.3049654668300752e+00 1.0415480945027596e+01 1.3943506453169295e+01 -1 -1 0
3946 444 2 -8.2999999999999996e-01 5.7048788267251034e+00 1.0767470518095120e+01 9.8325496989814969e+00 1 3 0
3948 444 1 4.1499999999999998e-01 6.0056096954392579e+00 1.0042965894587690e+01 1.0381080384256327e+01 1 3 0
5262 444 1 4.1499999999999998e-01 1.7802637826953804e+00 3.8838655333435095e+00 1.0621923948280626e+01 2 4 0
5260 444 2 -8.2999999999999996e-01 1.9830384109023880e+00 4.8171027304578677e+00 1.0557250036556038e+01 2 4 0
2529 444 1 4.1499999999999998e-01 6.2256173709538611e+00 7.9851046540819537e-01 9.7989181789815074e+00 0 -1 0
3947 444 1 4.1499999999999998e-01 4.7516663105956294e+00 1.0680837941427049e+01 9.8219376568899772e+00 1 3 0
2528 444 1 4.1499999999999998e-01 6.1852062310495128e+00 1.9762260700167980e+00 1.0749311839129577e+01 0 -1 0
3073 444 2 -8.2999999999999996e-01 5.1982723888868749e+00 3.9001190223925777e+00 9.8701548446837251e+00 0 0 0
3074 444 1 4.1499999999999998e-01 4.7686079381721127e+00 4.6060396204396721e+00 1.0353163222240035e+01 0 0 0
3075 444 1 4.1499999999999998e-01 4.7005775472343929e+00 3.1151704750032274e+00 1.0099041854537717e+01 0 0 0
4575 444 1 4.1499999999999998e-01 3.6925740896651247e+00 7.9464273042710083e+00 1.4695209887427531e+01 1 -2 0
4399 444 2 -8.2999999999999996e-01 5.0465444654842502e+00 4.6952469854119787e+00 1.3506729523990661e+01 0 2 0
4401 444 1 4.1499999999999998e-01 4.6765435336022092e+00 5.4267132694445106e+00 1.3012474242508871e+01 0 2 0
4400 444 1 4.1499999999999998e-01 4.7823890816758965e+00 4.8592866387930318e+00 1.4412016691638742e+01 0 2 0
4157 444 1 4.1499999999999998e-01 7.5764117304644008e-01 1.5140121691020949e+00 1.1080271453450548e+01 3 1 0
5346 444 1 4.1499999999999998e-01 5.3013482059064900e+00 2.4212027458719390e+00 1.3390262398846104e+01 -1 -1 0
5344 444 2 -8.2999999999999996e-01 5.0758614382294143e+00 1.9883089040753861e+00 1.4213664517593470e+01 -1 -1 0
2882 444 1 4.1499999999999998e-01 7.0691722412162443e+00 5.0151167946348458e+00 1.3155882149639218e+01 -1 -2 0
2774 444 1 4.1499999999999998e-01 2.4106350794536806e+00 1.0775943390913968e+01 9.9182786423971230e+00 1 0 0
2773 444 2 -8.2999999999999996e-01 3.1999448637686498e+00 1.0235787029728209e+01 9.9563979344079421e+00 1 0 0
2775 444 1 4.1499999999999998e-01 2.8853128879853065e+00 9.3688291504802290e+00 1.0212567469316383e+01 1 0 0
4573 444 2 -8.2999999999999996e-01 2.9772521111663757e+00 7.6737561880392677e+00 1.4120582261891682e+01 1 -2 0
4574 444 1 4.1499999999999998e-01 3.4128158012702543e+00 7.2658112219218589e+00 1.3372185856090812e+01 1 -2 0
4156 444 2 -8.2999999999999996e-01 9.3150440174993210e-01 2.4387943581435985e+00 1.0904825038799602e+01 3 1 0
5261 444 1 4.1499999999999998e-01 1.3042401660670024e+00 5.1709148031379035e+00 9.9825484566873968e+00 2 4 0
5485 444 2 -8.2999999999999996e-01 7.0390915136558601e+00 9.0689371465768502e+00 1.1491259524282315e+01 -2 1 0
3043 444 2 -8.2999999999999996e-01 1.6363342341291862e+00 1.0942169490809357e+01 1.6167565886189983e+01 -1 0 0
5345 444 1 4.1499999999999998e-01 4.4707876138522886e+00 2.5921202370021068e+00 1.4644396513471138e+01 -1 -1 0
3656 444 1 4.1499999999999998e-01 9.6592963787488284e-01 7.0964153133366077e+00 9.4662407981458827e+00 0 2 0
543 444 1 4.1499999999999998e-01 3.6021430592319192e+00 1.1209267558718256e+01 1.1648113033842469e+01 0 0 0
2330 444 1 4.1499999999999998e-01 6.1256598358711338e+00 1.0097936883275613e+00 1.5297802310345771e+01 -1 0 0
3655 444 2 -8.2999999999999996e-01 1.3398216126851910e+00 7.8479883878379075e+00 9.9262132157656850e+00 0 2 0
4158 444 1 4.1499999999999998e-01 6.8796986709757466e-02 2.8172069587878128e+00 1.0735202470422488e+01 3 1 0
4056 444 1 4.1499999999999998e-01 3.9269526859175090e+00 4.3839455567456115e-01 1.2631758211747671e+01 -1 0 0
1662 444 1 4.1499999999999998e-01 1.4237655175143351e+00 8.0988493246297697e+00 1.3261816290967454e+01 1 -1 0
3657 444 1 4.1499999999999998e-01 6.9352780537553382e-01 8.0636856731399433e+00 1.0598530888758884e+01 0 2 0
1660 444 2 -8.2999999999999996e-01 6.7337873455744468e-01 8.5768769702477083e+00 1.2908769459987177e+01 1 -1 0
1661 444 1 4.1499999999999998e-01 7.5014766667148847e-01 9.4544595539667888e+00 1.3283186164746580e+01 1 -1 0
5750 444 1 4.1499999999999998e-01 6.6194935458801729e-01 5.1385889702549070e+00 1.2031877709659407e+01 2 0 0
36 444 1 4.1499999999999998e-01 1.2009283692763919e+00 1.1445559434130599e+00 1.5477669343147841e+01 0 -1 0
2487 444 1 4.1499999999999998e-01 1.9717320471343598e+00 6.5662890225668917e+00 1.4729093040582947e+01 0 -2 0
34 444 2 -8.2999999999999996e-01 9.1489206137643009e-01 3.6046355278515002e-01 1.5946300917380556e+01 0 -1 0
416 444 1 4.1499999999999998e-01 6.0769689580177539e+00 8.1902338728282231e+00 1.5049893207978817e+01 -1 -1 0
206 444 1 4.1499999999999998e-01 3.0825223004397486e+00 5.3600283808416940e+00 1.5737338744096034e+01 -2 -2 0
205 444 2 -8.2999999999999996e-01 4.0327172677500194e+00 5.3414291917895023e+00 1.5851428331519864e+01 -2 -2 0
207 444 1 4.1499999999999998e-01 4.2876118395487079e+00 6.2631634123149853e+00 1.5892266511436542e+01 -2 -2 0
2486 444 1 4.1499999999999998e-01 7.5376512511236027e-01 5.6864339219378639e+00 1.4543871107649410e+01 0 -2 0
2485 444 2 -8.2999999999999996e-01 1.4790635521415949e+00 5.8584327817665320e+00 1.5144363224374686e+01 0 -2 0
4104 444 1 4.1499999999999998e-01 2.3318104150816613e-01 1.1606102549644302e+01 9.7895988085096821e+00 2 0 0
6001 444 3 -1.0000000000000000e+00 1.0137334060872688e-01 5.7128402290208147e+00 8.9559904238802943e+00 0 1 0
3558 444 1 4.1499999999999998e-01 4.0812178948653088e-01 3.1042400735571261e+00 1.4259721254064628e+01 0 3 0
2527 444 2 -8.2999999999999996e-01 6.7784376321534063e+00 1.3232243576820892e+00 1.0377966667504424e+01 0 -1 0
5487 444 1 4.1499999999999998e-01 7.4110190397702649e+00 8.5887778490175641e+00 1.2231089916586676e+01 -2 1 0
5749 444 2 -8.2999999999999996e-01 1.6079689909568529e-01 5.3567622879900432e+00 1.2817675934377702e+01 2 0 0
415 444 2 -8.2999999999999996e-01 5.3867144614316063e+00 7.8820366128077470e+00 1.5637086206487073e+01 -1 -1 0
2331 444 1 4.1499999999999998e-01 7.5028172355925307e+00 3.8250968646207900e-01 1.5340785024451502e+01 -1 0 0
3044 444 1 4.1499999999999998e-01 1.6490249490555389e+00 1.0191303294064163e+01 1.5574041591072341e+01 -1 0 0
3045 444 1 4.1499999999999998e-01 1.7926044090209898e+00 1.1698128447634714e+01 1.5601581608869207e+01 -1 0 0
3557 444 1 4.1499999999999998e-01 1.9102621879814607e+00 3.0416991979183745e+00 1.4082075169918806e+01 0 3 0
3556 444 2 -8.2999999999999996e-01 1.1541589474036624e+00 2.5083229428934795e+00 1.4327125315445635e+01 0 3 0
2329 444 2 -8.2999999999999996e-01 6.6654370747008569e+00 4.0268553904393739e-01 1.5804055327696531e+01 -1 0 0
6019 444 3 -1.0000000000000000e+00 4.9797648612823737e+00 4.0948188598896706e-02 8.8917417610908807e+00 1 0 0
3675 444 1 4.1499999999999998e-01 8.1706350903878047e+00 9.1739224918938653e+00 1.3975847027182132e+01 -1 -1 0
2881 444 2 -8.2999999999999996e-01 7.9687191853149431e+00 5.2938820616498923e+00 1.2984599471155756e+01 -1 -2 0
4720 444 2 -8.2999999999999996e-01 1.3581541078721063e+01 3.8424691795290822e-01 1.2725118370721871e+01 1 1 0
1412 444 1 4.1499999999999998e-01 1.2183988504226580e+01 8.3602032835880802e-01 9.6215239624871138e+00 -1 0 0
1411 444 2 -8.2999999999999996e-01 1.3056276385724964e+01 6.3094826661335823e-01 9.9581118835730926e+00 -1 0 0
4376 444 1 4.1499999999999998e-01 8.0000692166975362e+00 5.5926886773374207e+00 1.1374329788807005e+01 0 2 0
2883 444 1 4.1499999999999998e-01 8.5103571222847663e+00 4.6537549912469709e+00 1.3446225527511563e+01 -1 -2 0
392 444 1 4.1499999999999998e-01 8.2053793664033385e+00 1.0125043193606539e+01 1.6070830516684463e+01 1 0 0
1341 444 1 4.1499999999999998e-01 9.8804678169930629e+00 7.9990904025346889e+00 1.3986633475209608e+01 3 0 0
3561 444 1 4.1499999999999998e-01 9.1487143195020231e+00 3.5759926473958186e+00 1.5735261788815274e+01 -1 -1 0
3559 444 2 -8.2999999999999996e-01 8.9434496139316284e+00 3.4290918787589058e+00 1.4811942270359376e+01 -1 -1 0
4375 444 2 -8.2999999999999996e-01 8.1067829873042960e+00 5.5669155454345178e+00 1.0423446086774529e+01 0 2 0
4377 444 1 4.1499999999999998e-01 8.0518575952470819e+00 4.6375695897048219e+00 1.0200890097155728e+01 0 2 0
4441 444 2 -8.2999999999999996e-01 1.3401106356343844e+01 5.2581474278146620e+00 1.2869567760021532e+01 2 1 0
1339 444 2 -8.2999999999999996e-01 9.3401613498415266e+00 8.3153241567608802e+00 1.3262549583079021e+01 3 0 0
5486 444 1 4.1499999999999998e-01 7.7982079091561536e+00 9.4303093789988708e+00 1.1033674040945378e+01 -2 1 0
1828 444 2 -8.2999999999999996e-01 9.4220424117790440e+00 9.9000101271034264e+00 1.0718056624491432e+01 -3 1 0
1829 444 1 4.1499999999999998e-01 1.0061804674359147e+01 9.2069007630585418e+00 1.0555158225807599e+01 -3 1 0
1830 444 1 4.1499999999999998e-01 9.5266542670417387e+00 1.0501302490961336e+01 9.9806719840499234e+00 -3 1 0
3190 444 2 -8.2999999999999996e-01 1.2395651206977977e+01 1.0999239677519521e+01 9.9646925634229095e+00 0 1 0
4170 444 1 4.1499999999999998e-01 7.9951968830989761e+00 2.4260731831640512e+00 1.0152405101668384e+01 -1 2 0
4168 444 2 -8.2999999999999996e-01 8.7193399535564815e+00 2.9702759157388239e+00 9.8430637118874902e+00 -1 2 0
4169 444 1 4.1499999999999998e-01 9.3894764421484069e+00 2.3444689158995056e+00 9.5682642623132832e+00 -1 2 0
1340 444 1 4.1499999999999998e-01 9.9205267407555091e+00 8.8897504340834139e+00 1.2763107481767051e+01 3 0 0
3251 444 1 4.1499999999999998e-01 1.2621074459745598e+01 5.4990942951829513e+00 9.8677998778322191e+00 2 0 0
3250 444 2 -8.2999999999999996e-01 1.2930128826184880e+01 6.2955882439969653e+00 1.0299441826002662e+01 2 0 0
3252 444 1 4.1499999999999998e-01 1.3871895495649236e+01 6.3109733804389485e+00 1.0128940331552849e+01 2 0 0
634 444 2 -8.2999999999999996e-01 1.1879101079857284e+01 3.4440790701031605e+00 1.0053987245782753e+01 -2 0 0
4480 444 2 -8.2999999999999996e-01 1.0510552040696117e+01 7.5275535483195366e+00 1.0192357065312736e+01 0 -1 0
4482 444 1 4.1499999999999998e-01 1.1373511590871587e+01 7.1141293326216131e+00 1.0217128029630986e+01 0 -1 0
4481 444 1 4.1499999999999998e-01 9.9104539986306843e+00 6.8491333619355981e+00 1.0501970855578444e+01 0 -1 0
6007 444 3 -1.0000000000000000e+00 1.0614132848410867e+01 1.3749126963258780e+00 9.1795028834285510e+00 0 0 0
636 444 1 4.1499999999999998e-01 1.1278415072914495e+01 2.7428131882387010e+00 9.8017285183540270e+00 -2 0 0
635 444 1 4.1499999999999998e-01 1.2637812567737969e+01 2.9899196908389123e+00 1.0420495245887272e+01 -2 0 0
4442 444 1 4.1499999999999998e-01 1.3254699192157721e+01 6.0947897795677521e+00 1.3310960835185679e+01 2 1 0
4443 444 1 4.1499999999999998e-01 1.2959394997127577e+01 5.3515758413806145e+00 1.2025533146198493e+01 2 1 0
4741 444 2 -8.2999999999999996e-01 1.0578983698895748e+01 6.9207915864690204e+00 1.5704436947786983e+01 0 -2 0
2938 444 2 -8.2999999999999996e-01 1.2692914726080037e+01 8.6367853397877941e+00 1.1536203775805584e+01 1 1 0
2940 444 1 4.1499999999999998e-01 1.2355115530914150e+01 7.8408253552515381e+00 1.1125629048550525e+01 1 1 0
3560 444 1 4.1499999999999998e-01 8.7576722649993375e+00 2.4919099138581933e+00 1.4753555893226167e+01 -1 -1 0
4743 444 1 4.1499999999999998e-01 9.7058801024629222e+00 6.5617127893017280e+00 1.5862503813019366e+01 0 -2 0
2939 444 1 4.1499999999999998e-01 1.2816025388641044e+01 8.3990930452243759e+00 1.2455213445334579e+01 1 1 0
784 444 2 -8.2999999999999996e-01 1.4375021520929645e+01 1.1483449468355667e+01 1.4590232491021075e+01 3 -1 0
1238 444 1 4.1499999999999998e-01 1.3365592638124621e+01 7.7620532476346895e+00 1.4904809164072587e+01 2 4 0
4472 444 1 4.1499999999999998e-01 1.1444490141992279e+01 2.1489361557927968e+00 1.3604752251691599e+01 -1 1 0
3191 444 1 4.1499999999999998e-01 1.2363975356841669e+01 1.0200788667539594e+01 1.0491670375542403e+01 0 1 0
3192 444 1 4.1499999999999998e-01 1.1481120477928357e+01 1.1270175001845216e+01 9.8843172864328874e+00 0 1 0
1061 444 1 4.1499999999999998e-01 1.0286606886116438e+01 1.3616661779414649e+00 1.1477633915963647e+01 2 0 0
1237 444 2 -8.2999999999999996e-01 1.2887969433694273e+01 7.5276916444069002e+00 1.4109081351439782e+01 2 4 0
1239 444 1 4.1499999999999998e-01 1.1982051359624620e+01 7.4156412233214306e+00 1.4397159686398577e+01 2 4 0
1062 444 1 4.1499999999999998e-01 9.7109666663118190e+00 2.7371698331749434e+00 1.1739403419665795e+01 2 0 0
4473 444 1 4.1499999999999998e-01 1.1590864507933274e+01 1.9009761736015804e+00 1.5091018002470296e+01 -1 1 0
4471 444 2 -8.2999999999999996e-01 1.2100570018623570e+01 2.0510326051603496e+00 1.4294829739837487e+01 -1 1 0
1060 444 2 -8.2999999999999996e-01 1.0003664334495632e+01 1.9418598995942564e+00 1.2184423196393388e+01 2 0 0
1890 444 1 4.1499999999999998e-01 9.2532027623451043e+00 6.7651463416249025e-01 1.3745924825653574e+01 0 -1 0
73 444 2 -8.2999999999999996e-01 1.5208973219252607e+01 8.4409928094976987e+00 9.8707833820423403e+00 0 -1 0
4722 444 1 4.1499999999999998e-01 1.3012889685774121e+01 9.1867727186817605e-01 1.3279421977937817e+01 1 1 0
93 444 1 4.1499999999999998e-01 1.4230281312343184e+01 1.0559113765652666e+00 1.5311396054581150e+01 2 1 0
1652 444 1 4.1499999999999998e-01 9.4189251974980337e+00 1.1196114356436469e+01 1.2864033214663698e+01 -1 0 0
74 444 1 4.1499999999999998e-01 1.4590383450875917e+01 8.7207068814233963e+00 1.0545571223109604e+01 0 -1 0
1888 444 2 -8.2999999999999996e-01 8.8838036817742854e+00 5.0341398880571098e-01 1.4611842065415010e+01 0 -1 0
2159 444 1 4.1499999999999998e-01 1.3960226241712109e+01 4.7989049799832708e+00 1.5006944292592994e+01 0 0 0
2158 444 2 -8.2999999999999996e-01 1.4542556784776918e+01 5.1230332163610077e+00 1.5694013500364871e+01 0 0 0
786 444 1 4.1499999999999998e-01 1.3545971917345717e+01 1.1047184751548309e+01 1.4393809247829019e+01 3 -1 0
2525 444 1 4.1499999999999998e-01 9.6129590450021887e+00 2.8909022706782417e-01 9.7447492330017802e+00 3 1 0
4721 444 1 4.1499999999999998e-01 1.3331664382999749e+01 6.1621588633029634e-01 1.1830699836105936e+01 1 1 0
62 444 1 4.1499999999999998e-01 1.4603789330231452e+01 1.5683623952591301e+00 9.9584137331123390e+00 -1 1 0
91 444 2 -8.2999999999999996e-01 1.4993901171745225e+01 8.7247102000319943e-01 1.5858631262465792e+01 2 1 0
2526 444 1 4.1499999999999998e-01 8.2665772447339450e+00 4.6524460683338914e-01 1.0414167637743645e+01 3 1 0
1889 444 1 4.1499999999999998e-01 9.6426463109463469e+00 3.0938118967435124e-01 1.5162061216613974e+01 0 -1 0
3197 444 1 4.1499999999999998e-01 6.1430840895145937e-02 1.0154711655310042e+01 2.2429411286453373e+01 0 -1 0
103 444 2 -8.2999999999999996e-01 7.9273231288184309e-02 1.1341422499052351e+01 1.8758453860865433e+01 0 2 0
1835 444 1 4.1499999999999998e-01 3.6815908141344000e-01 5.1681955533250772e+00 1.9150926700009844e+01 -1 0 0
105 444 1 4.1499999999999998e-01 5.5700591127380727e-01 1.1267217495556196e+01 1.7932320113923055e+01 0 2 0
5271 444 1 4.1499999999999998e-01 5.6452696474806885e-02 2.0109605145262495e+00 2.2552046748737091e+01 -1 2 0
1150 444 2 -8.2999999999999996e-01 1.2229494647374684e+00 5.9515558710259882e+00 1.7820476483288427e+01 0 0 0
417 444 1 4.1499999999999998e-01 5.7305896186702592e+00 8.0412368277883104e+00 1.6516084369614934e+01 -1 -1 0
4951 444 2 -8.2999999999999996e-01 1.1051432084919879e+00 2.3891605885051810e+00 1.9681624154574532e+01 -2 2 0
256 444 2 -8.2999999999999996e-01 6.4052210438770407e+00 1.6175061727192170e+00 1.8224853320942909e+01 -1 3 0
257 444 1 4.1499999999999998e-01 6.6186575960573979e+00 1.1561186766961855e+00 1.7413805632329613e+01 -1 3 0
559 444 2 -8.2999999999999996e-01 4.5326977507149442e+00 3.4774965659438108e+00 1.7646553027041740e+01 1 0 0
560 444 1 4.1499999999999998e-01 4.5751914989660039e+00 4.0685682532777223e+00 1.8398258046234851e+01 1 0 0
2871 444 1 4.1499999999999998e-01 2.5775173534683709e+00 2.6171917182384572e+00 2.0410173181549265e+01 2 1 0
4925 444 1 4.1499999999999998e-01 3.5770098482040322e+00 8.3040967561935286e+00 1.8192893452960952e+01 1 0 0
4924 444 2 -8.2999999999999996e-01 3.3344596597674632e+00 7.4515745248838989e+00 1.8554289731460990e+01 1 0 0
561 444 1 4.1499999999999998e-01 4.3581211612630835e+00 4.0507095138839020e+00 1.6900106910097183e+01 1 0 0
2869 444 2 -8.2999999999999996e-01 3.5035091405577949e+00 2.5526715455680717e+00 2.0643857466108695e+01 2 1 0
1151 444 1 4.1499999999999998e-01 1.8820181974368120e+00 6.5774231658752544e+00 1.8120727084101485e+01 0 0 0
2870 444 1 4.1499999999999998e-01 3.8725082717313910e+00 3.4012635025826969e+00 2.0398983366489020e+01 2 1 0
1152 444 1 4.1499999999999998e-01 1.2784199654880577e+00 5.9842690657997384e+00 1.6865445159671612e+01 0 0 0
258 444 1 4.1499999999999998e-01 5.5899652802186708e+00 2.0799064673685836e+00 1.8030493156836428e+01 -1 3 0
5124 444 1 4.1499999999999998e-01 4.8834962888836921e+00 1.0349372863484462e+01 2.2681133776360898e+01 1 -1 0
3996 444 1 4.1499999999999998e-01 7.3762127089445437e+00 1.0489993885501974e+01 2.1673602374438889e+01 1 0 0
3994 444 2 -8.2999999999999996e-01 6.6672555560227886e+00 9.8745923630979480e+00 2.1860398059606652e+01 1 0 0
3995 444 1 4.1499999999999998e-01 7.1106692582098363e+00 9.0832626721749197e+00 2.2166034317479980e+01 1 0 0
1802 444 1 4.1499999999999998e-01 6.9775458244954267e+00 2.6647598884920365e+00 2.1131802013732319e+01 -1 -2 0
384 444 1 4.1499999999999998e-01 7.1241088315814434e+00 7.0496214554248651e+00 2.3325111078097141e+01 1 1 0
2273 444 1 4.1499999999999998e-01 3.1064642149977191e+00 1.0869538113813377e+00 1.9122228058566456e+01 1 2 0
4926 444 1 4.1499999999999998e-01 3.8761723442778973e+00 7.3602903530775512e+00 1.9338156151352639e+01 1 0 0
5122 444 2 -8.2999999999999996e-01 4.4592976793772898e+00 1.0709162723608273e+01 2.3460132456564470e+01 1 -1 0