LAMMPS data file via write_data, version 11 Aug 2017, timestep = 5000000

7164 atoms
4 atom types
4000 bonds
1 bond types
2000 angles
1 angle types

0.0000000000000000e+00 4.5679949999999998e+01 xlo xhi
0.0000000000000000e+00 4.6885919999999999e+01 ylo yhi
0.0000000000000000e+00 6.5000000000000000e+01 zlo zhi

Masses

1 1.0079
2 15.9994
3 18.9984
4 107.868

Bond Coeffs # harmonic

1 450 0.9572

Angle Coeffs # harmonic

1 55 104.52

Atoms # full

6013 444 4 0.0000000000000000e+00 1.6907200000000000e+00 0.0000000000000000e+00 0.0000000000000000e+00 0 0 0
6014 444 4 0.0000000000000000e+00 4.2285000000000004e+00 1.4651900000000000e+00 0.0000000000000000e+00 0 0 0
6015 444 4 4.1669999999999999e-02 1.6907700000000001e+00 0.0000000000000000e+00 7.1781499999999996e+00 0 0 0
6016 444 4 4.1669999999999999e-02 4.2285500000000003e+00 1.4651900000000000e+00 7.1781499999999996e+00 0 0 0
6017 444 4 0.0000000000000000e+00 2.5366499999999998e+00 1.4651900000000000e+00 2.3926400000000001e+00 0 0 0
6018 444 4 0.0000000000000000e+00 5.0744199999999999e+00 0.0000000000000000e+00 2.3926400000000001e+00 0 0 0
6019 444 4 0.0000000000000000e+00 8.4509000000000001e-01 1.4651900000000000e+00 4.7824200000000001e+00 0 0 0
6020 444 4 0.0000000000000000e+00 3.3828600000000000e+00 0.0000000000000000e+00 4.7824499999999999e+00 0 0 0
6021 444 4 0.0000000000000000e+00 1.6907200000000000e+00 2.9303699999999999e+00 0.0000000000000000e+00 0 0 0
6022 444 4 0.0000000000000000e+00 4.2285000000000004e+00 4.3955599999999997e+00 0.0000000000000000e+00 0 0 0
6023 444 4 4.1669999999999999e-02 1.6907700000000001e+00 2.9303699999999999e+00 7.1781899999999998e+00 0 0 0
6024 444 4 4.1669999999999999e-02 4.2285500000000003e+00 4.3955599999999997e+00 7.1781600000000001e+00 0 0 0
6025 444 4 0.0000000000000000e+00 2.5366499999999998e+00 4.3955599999999997e+00 2.3926400000000001e+00 0 0 0
6026 444 4 0.0000000000000000e+00 5.0744199999999999e+00 2.9303699999999999e+00 2.3926400000000001e+00 0 0 0
6027 444 4 0.0000000000000000e+00 8.4509000000000001e-01 4.3955599999999997e+00 4.7824499999999999e+00 0 0 0
6028 444 4 0.0000000000000000e+00 3.3828700000000000e+00 2.9303699999999999e+00 4.7824400000000002e+00 0 0 0
6029 444 4 0.0000000000000000e+00 1.6907200000000000e+00 5.8607399999999998e+00 0.0000000000000000e+00 0 0 0
6030 444 4 0.0000000000000000e+00 4.2285000000000004e+00 7.3259299999999996e+00 0.0000000000000000e+00 0 0 0
6031 444 4 4.1669999999999999e-02 1.6907700000000001e+00 5.8607399999999998e+00 7.1781499999999996e+00 0 0 0
6032 444 4 4.1669999999999999e-02 4.2285500000000003e+00 7.3259299999999996e+00 7.1781499999999996e+00 0 0 0
6033 444 4 0.0000000000000000e+00 2.5366499999999998e+00 7.3259299999999996e+00 2.3926400000000001e+00 0 0 0
6034 444 4 0.0000000000000000e+00 5.0744199999999999e+00 5.8607399999999998e+00 2.3926400000000001e+00 0 0 0
6035 444 4 0.0000000000000000e+00 8.4509000000000001e-01 7.3259299999999996e+00 4.7824200000000001e+00 0 0 0
6036 444 4 0.0000000000000000e+00 3.3828600000000000e+00 5.8607399999999998e+00 4.7824499999999999e+00 0 0 0
6141 444 4 0.0000000000000000e+00 6.7662699999999996e+00 0.0000000000000000e+00 0.0000000000000000e+00 0 0 0
6143 444 4 4.1669999999999999e-02 6.7663200000000003e+00 0.0000000000000000e+00 7.1781499999999996e+00 0 0 0
6145 444 4 0.0000000000000000e+00 7.6121999999999996e+00 1.4651900000000000e+00 2.3926400000000001e+00 0 0 0
6147 444 4 0.0000000000000000e+00 5.9206399999999997e+00 1.4651900000000000e+00 4.7824200000000001e+00 0 0 0
6149 444 4 0.0000000000000000e+00 6.7662699999999996e+00 2.9303699999999999e+00 0.0000000000000000e+00 0 0 0
6151 444 4 4.1669999999999999e-02 6.7663200000000003e+00 2.9303699999999999e+00 7.1781899999999998e+00 0 0 0
6153 444 4 0.0000000000000000e+00 7.6121999999999996e+00 4.3955599999999997e+00 2.3926400000000001e+00 0 0 0
6155 444 4 0.0000000000000000e+00 5.9206399999999997e+00 4.3955599999999997e+00 4.7824499999999999e+00 0 0 0
6157 444 4 0.0000000000000000e+00 6.7662699999999996e+00 5.8607399999999998e+00 0.0000000000000000e+00 0 0 0
6159 444 4 4.1669999999999999e-02 6.7663200000000003e+00 5.8607399999999998e+00 7.1781499999999996e+00 0 0 0
6161 444 4 0.0000000000000000e+00 7.6121999999999996e+00 7.3259299999999996e+00 2.3926400000000001e+00 0 0 0
6163 444 4 0.0000000000000000e+00 5.9206399999999997e+00 7.3259299999999996e+00 4.7824200000000001e+00 0 0 0
6037 444 4 0.0000000000000000e+00 1.6907200000000000e+00 8.7911099999999998e+00 0.0000000000000000e+00 0 0 0
6038 444 4 0.0000000000000000e+00 4.2285000000000004e+00 1.0256300000000000e+01 0.0000000000000000e+00 0 0 0
6039 444 4 4.1669999999999999e-02 1.6907700000000001e+00 8.7911099999999998e+00 7.1781899999999998e+00 0 0 0
6040 444 4 4.1669999999999999e-02 4.2285500000000003e+00 1.0256300000000000e+01 7.1781600000000001e+00 0 0 0
6041 444 4 0.0000000000000000e+00 2.5366499999999998e+00 1.0256300000000000e+01 2.3926400000000001e+00 0 0 0
6042 444 4 0.0000000000000000e+00 5.0744199999999999e+00 8.7911099999999998e+00 2.3926400000000001e+00 0 0 0
6043 444 4 0.0000000000000000e+00 8.4509000000000001e-01 1.0256300000000000e+01 4.7824499999999999e+00 0 0 0
6044 444 4 0.0000000000000000e+00 3.3828700000000000e+00 8.7911099999999998e+00 4.7824400000000002e+00 0 0 0
6165 444 4 0.0000000000000000e+00 6.7662699999999996e+00 8.7911099999999998e+00 0.0000000000000000e+00 0 0 0
6167 444 4 4.1669999999999999e-02 6.7663200000000003e+00 8.7911099999999998e+00 7.1781899999999998e+00 0 0 0
6169 444 4 0.0000000000000000e+00 7.6121999999999996e+00 1.0256300000000000e+01 2.3926400000000001e+00 0 0 0
6171 444 4 0.0000000000000000e+00 5.9206399999999997e+00 1.0256300000000000e+01 4.7824499999999999e+00 0 0 0
6142 444 4 0.0000000000000000e+00 9.3040500000000002e+00 1.4651900000000000e+00 0.0000000000000000e+00 0 0 0
6144 444 4 4.1669999999999999e-02 9.3041000000000000e+00 1.4651900000000000e+00 7.1781499999999996e+00 0 0 0
6146 444 4 0.0000000000000000e+00 1.0149970000000000e+01 0.0000000000000000e+00 2.3926400000000001e+00 0 0 0
6148 444 4 0.0000000000000000e+00 8.4584100000000007e+00 0.0000000000000000e+00 4.7824499999999999e+00 0 0 0
6150 444 4 0.0000000000000000e+00 9.3040500000000002e+00 4.3955599999999997e+00 0.0000000000000000e+00 0 0 0
6152 444 4 4.1669999999999999e-02 9.3041000000000000e+00 4.3955599999999997e+00 7.1781600000000001e+00 0 0 0
6154 444 4 0.0000000000000000e+00 1.0149970000000000e+01 2.9303699999999999e+00 2.3926400000000001e+00 0 0 0
6156 444 4 0.0000000000000000e+00 8.4584200000000003e+00 2.9303699999999999e+00 4.7824400000000002e+00 0 0 0
6158 444 4 0.0000000000000000e+00 9.3040500000000002e+00 7.3259299999999996e+00 0.0000000000000000e+00 0 0 0
6160 444 4 4.1669999999999999e-02 9.3041000000000000e+00 7.3259299999999996e+00 7.1781499999999996e+00 0 0 0
6162 444 4 0.0000000000000000e+00 1.0149970000000000e+01 5.8607399999999998e+00 2.3926400000000001e+00 0 0 0
6164 444 4 0.0000000000000000e+00 8.4584100000000007e+00 5.8607399999999998e+00 4.7824499999999999e+00 0 0 0
6275 444 4 0.0000000000000000e+00 1.0996190000000000e+01 1.4651900000000000e+00 4.7824200000000001e+00 0 0 0
6283 444 4 0.0000000000000000e+00 1.0996190000000000e+01 4.3955599999999997e+00 4.7824499999999999e+00 0 0 0
6291 444 4 0.0000000000000000e+00 1.0996190000000000e+01 7.3259299999999996e+00 4.7824200000000001e+00 0 0 0
6166 444 4 0.0000000000000000e+00 9.3040500000000002e+00 1.0256300000000000e+01 0.0000000000000000e+00 0 0 0
6168 444 4 4.1669999999999999e-02 9.3041000000000000e+00 1.0256300000000000e+01 7.1781600000000001e+00 0 0 0
6170 444 4 0.0000000000000000e+00 1.0149970000000000e+01 8.7911099999999998e+00 2.3926400000000001e+00 0 0 0
6172 444 4 0.0000000000000000e+00 8.4584200000000003e+00 8.7911099999999998e+00 4.7824400000000002e+00 0 0 0
6299 444 4 0.0000000000000000e+00 1.0996190000000000e+01 1.0256300000000000e+01 4.7824499999999999e+00 0 0 0
6269 444 4 0.0000000000000000e+00 1.1841820000000000e+01 0.0000000000000000e+00 0.0000000000000000e+00 0 0 0
6270 444 4 0.0000000000000000e+00 1.4379600000000000e+01 1.4651900000000000e+00 0.0000000000000000e+00 0 0 0
6271 444 4 4.1669999999999999e-02 1.1841870000000000e+01 0.0000000000000000e+00 7.1781499999999996e+00 0 0 0
6272 444 4 4.1669999999999999e-02 1.4379650000000000e+01 1.4651900000000000e+00 7.1781499999999996e+00 0 0 0
6273 444 4 0.0000000000000000e+00 1.2687749999999999e+01 1.4651900000000000e+00 2.3926400000000001e+00 0 0 0
6274 444 4 0.0000000000000000e+00 1.5225519999999999e+01 0.0000000000000000e+00 2.3926400000000001e+00 0 0 0
6276 444 4 0.0000000000000000e+00 1.3533960000000000e+01 0.0000000000000000e+00 4.7824499999999999e+00 0 0 0
6277 444 4 0.0000000000000000e+00 1.1841820000000000e+01 2.9303699999999999e+00 0.0000000000000000e+00 0 0 0
6278 444 4 0.0000000000000000e+00 1.4379600000000000e+01 4.3955599999999997e+00 0.0000000000000000e+00 0 0 0
6279 444 4 4.1669999999999999e-02 1.1841870000000000e+01 2.9303699999999999e+00 7.1781899999999998e+00 0 0 0
6280 444 4 4.1669999999999999e-02 1.4379650000000000e+01 4.3955599999999997e+00 7.1781600000000001e+00 0 0 0
6281 444 4 0.0000000000000000e+00 1.2687749999999999e+01 4.3955599999999997e+00 2.3926400000000001e+00 0 0 0
6282 444 4 0.0000000000000000e+00 1.5225519999999999e+01 2.9303699999999999e+00 2.3926400000000001e+00 0 0 0
6284 444 4 0.0000000000000000e+00 1.3533970000000000e+01 2.9303699999999999e+00 4.7824400000000002e+00 0 0 0
6285 444 4 0.0000000000000000e+00 1.1841820000000000e+01 5.8607399999999998e+00 0.0000000000000000e+00 0 0 0
6286 444 4 0.0000000000000000e+00 1.4379600000000000e+01 7.3259299999999996e+00 0.0000000000000000e+00 0 0 0
6287 444 4 4.1669999999999999e-02 1.1841870000000000e+01 5.8607399999999998e+00 7.1781499999999996e+00 0 0 0
6288 444 4 4.1669999999999999e-02 1.4379650000000000e+01 7.3259299999999996e+00 7.1781499999999996e+00 0 0 0
6289 444 4 0.0000000000000000e+00 1.2687749999999999e+01 7.3259299999999996e+00 2.3926400000000001e+00 0 0 0
6290 444 4 0.0000000000000000e+00 1.5225519999999999e+01 5.8607399999999998e+00 2.3926400000000001e+00 0 0 0
6292 444 4 0.0000000000000000e+00 1.3533960000000000e+01 5.8607399999999998e+00 4.7824499999999999e+00 0 0 0
6293 444 4 0.0000000000000000e+00 1.1841820000000000e+01 8.7911099999999998e+00 0.0000000000000000e+00 0 0 0
6294 444 4 0.0000000000000000e+00 1.4379600000000000e+01 1.0256300000000000e+01 0.0000000000000000e+00 0 0 0
6295 444 4 4.1669999999999999e-02 1.1841870000000000e+01 8.7911099999999998e+00 7.1781899999999998e+00 0 0 0
6296 444 4 4.1669999999999999e-02 1.4379650000000000e+01 1.0256300000000000e+01 7.1781600000000001e+00 0 0 0
6297 444 4 0.0000000000000000e+00 1.2687749999999999e+01 1.0256300000000000e+01 2.3926400000000001e+00 0 0 0
6298 444 4 0.0000000000000000e+00 1.5225519999999999e+01 8.7911099999999998e+00 2.3926400000000001e+00 0 0 0
6300 444 4 0.0000000000000000e+00 1.3533970000000000e+01 8.7911099999999998e+00 4.7824400000000002e+00 0 0 0
3997 444 2 -8.2999999999999996e-01 2.1399983034227272e+00 2.3217625529669976e+00 1.0599288294819567e+01 3 1 0
3999 444 1 4.1499999999999998e-01 2.6575791045911608e+00 1.5811066796307576e+00 1.0283423046052915e+01 3 1 0
3998 444 1 4.1499999999999998e-01 2.4495492025127685e+00 3.0674839747052909e+00 1.0085177671341102e+01 3 1 0
4482 444 1 4.1499999999999998e-01 1.9651866887707912e+00 5.1101084459900354e+00 1.0119187505117988e+01 -3 -1 0
4481 444 1 4.1499999999999998e-01 8.9853615161124822e-01 4.3598025800391511e+00 1.0888078221474448e+01 -3 -1 0
4480 444 2 -8.2999999999999996e-01 1.0584337229095240e+00 5.1782446207080879e+00 1.0418166409934491e+01 -3 -1 0
6010 444 3 -1.0000000000000000e+00 3.3419881169411085e+00 4.2712412640216328e+00 9.2268196415749770e+00 1 2 0
4071 444 1 4.1499999999999998e-01 4.2891229922385730e+00 7.0030824793593229e+00 1.0563230119867191e+01 2 -2 0
1938 444 1 4.1499999999999998e-01 2.3547782886240824e+00 3.1084760899326978e+00 1.3434204117951337e+01 1 3 0
4145 444 1 4.1499999999999998e-01 4.5243533959455053e+00 3.5186460605923555e+00 9.9642729825704190e+00 -5 4 0
4070 444 1 4.1499999999999998e-01 4.2111056303284293e+00 5.7179382631142470e+00 9.7668553422043960e+00 2 -2 0
4069 444 2 -8.2999999999999996e-01 4.8323592860897095e+00 6.3654405284143660e+00 1.0100046815739892e+01 2 -2 0
1936 444 2 -8.2999999999999996e-01 2.6498340137111343e+00 2.2603628570663150e+00 1.3102725743945038e+01 1 3 0
4146 444 1 4.1499999999999998e-01 4.7672867914345796e+00 2.0409673333877159e+00 1.0186407850671651e+01 -5 4 0
4144 444 2 -8.2999999999999996e-01 5.1488566575208168e+00 2.9036418512639242e+00 1.0348977497968445e+01 -5 4 0
581 444 1 4.1499999999999998e-01 2.4155149569127556e+00 8.3211889253907270e+00 1.1305925400480552e+01 4 1 0
580 444 2 -8.2999999999999996e-01 3.3571496556323499e+00 8.4102703669814680e+00 1.1158883446595828e+01 4 1 0
582 444 1 4.1499999999999998e-01 3.4761825666792854e+00 9.3281966845638493e+00 1.0915009105796917e+01 4 1 0
23 444 1 4.1499999999999998e-01 2.4611777201043763e+00 5.3489804014650586e+00 1.2968484861602342e+01 -5 3 0
4900 444 2 -8.2999999999999996e-01 7.6707114394117182e-01 7.8452057939166462e+00 1.1336858170615836e+01 -1 0 0
1206 444 1 4.1499999999999998e-01 6.1495966357780114e+00 4.8606514847076232e+00 1.5357302017408095e+01 1 2 0
1204 444 2 -8.2999999999999996e-01 6.6157852172034044e+00 5.5270654490170177e+00 1.4852531875664349e+01 1 2 0
1205 444 1 4.1499999999999998e-01 6.1304517425475673e+00 5.5880771987414724e+00 1.4029755126492597e+01 1 2 0
22 444 2 -8.2999999999999996e-01 1.8232191186234794e+00 4.9652619455242180e+00 1.3570149797094123e+01 -5 3 0
4902 444 1 4.1499999999999998e-01 9.7781287073078693e-01 7.2429747063385443e+00 1.0623319147460078e+01 -1 0 0
24 444 1 4.1499999999999998e-01 1.2816811200028422e+00 5.7037501107028534e+00 1.3848724050984760e+01 -5 3 0
3045 444 1 4.1499999999999998e-01 6.4176268399888396e+00 8.0171158628283941e+00 1.2593964690500792e+01 1 -1 0
3789 444 1 4.1499999999999998e-01 5.7681422611779425e+00 1.0977622688460263e+01 1.5695611369360817e+01 4 2 0
3043 444 2 -8.2999999999999996e-01 5.5912180674427940e+00 8.4235405981236795e+00 1.2854925076568509e+01 1 -1 0
659 444 1 4.1499999999999998e-01 2.4054890614783022e+00 9.5417868021682484e+00 1.5590108227145729e+01 -1 -1 0
1376 444 1 4.1499999999999998e-01 3.0116333279528189e+00 5.4846321282772550e+00 1.4908981665601482e+01 1 3 0
3044 444 1 4.1499999999999998e-01 4.9387310789989298e+00 8.0370013689434838e+00 1.2270904422394121e+01 1 -1 0
3787 444 2 -8.2999999999999996e-01 5.0340897566170284e+00 1.1080508533250425e+01 1.5089960294182003e+01 4 2 0
3788 444 1 4.1499999999999998e-01 4.6613346594487943e+00 1.0202213903803697e+01 1.5013252771613999e+01 4 2 0
210 444 1 4.1499999999999998e-01 6.5713374744286179e+00 5.0697361216846177e+00 1.0437713622628312e+01 2 -4 0
1937 444 1 4.1499999999999998e-01 2.7531046267097086e+00 2.3936967360622665e+00 1.2160500179280017e+01 1 3 0
2311 444 2 -8.2999999999999996e-01 3.9051081032575605e+00 3.5420014702496494e-01 1.0074972318778265e+01 -1 0 0
4062 444 1 4.1499999999999998e-01 5.7541725808402795e+00 7.8733698179072187e+00 9.8871104855288934e+00 6 -1 0
3519 444 1 4.1499999999999998e-01 4.8857210271696179e+00 8.5758349670864629e+00 1.4211532247872761e+01 -3 -1 0
2976 444 1 4.1499999999999998e-01 5.6512078348933352e+00 3.7236431636221576e+00 1.3095391538630968e+01 2 1 0
998 444 1 4.1499999999999998e-01 5.3863144441335820e+00 1.1423657008413763e+01 1.0120572200842879e+01 -2 -4 0
208 444 2 -8.2999999999999996e-01 7.4814351571465600e+00 4.9949827783387732e+00 1.0150717570708840e+01 2 -4 0
4060 444 2 -8.2999999999999996e-01 6.5239086401895392e+00 8.4423114766157052e+00 9.8805040605389589e+00 6 -1 0
3518 444 1 4.1499999999999998e-01 4.1055091173623177e+00 7.6272408303472750e+00 1.5096593683677607e+01 -3 -1 0
3517 444 2 -8.2999999999999996e-01 4.4180148823723959e+00 8.5305442726228407e+00 1.5045457684350755e+01 -3 -1 0
2715 444 1 4.1499999999999998e-01 5.6382320691035892e-01 3.6761355954020396e+00 1.4264960452580050e+01 -1 4 0
658 444 2 -8.2999999999999996e-01 1.5605243305729091e+00 9.7828014856502659e+00 1.5210399711210011e+01 -1 -1 0
2974 444 2 -8.2999999999999996e-01 5.2923654724093101e+00 4.3576208602846922e+00 1.2474475841173605e+01 2 1 0
2975 444 1 4.1499999999999998e-01 5.0468307729257944e+00 3.8339781435493854e+00 1.1711755124673555e+01 2 1 0
810 444 1 4.1499999999999998e-01 7.0948595257847620e+00 6.8701787947236967e+00 1.5822094692937529e+01 -2 -1 0
660 444 1 4.1499999999999998e-01 1.0717958872393680e+00 8.9607076807135648e+00 1.5171175448774887e+01 -1 -1 0
2056 444 2 -8.2999999999999996e-01 6.2125066098719133e+00 1.9769477398784121e+00 1.3229832882747594e+01 6 -1 0
999 444 1 4.1499999999999998e-01 5.5448422747068786e+00 9.9442289914950663e+00 1.0399959348263202e+01 -2 -4 0
997 444 2 -8.2999999999999996e-01 4.8910557476689496e+00 1.0642608825097552e+01 1.0367381411038478e+01 -2 -4 0
1026 444 1 4.1499999999999998e-01 6.7308532047583469e+00 2.5959931045932154e+00 1.0480043494379011e+01 -4 0 0
70 444 2 -8.2999999999999996e-01 4.6137492866141221e+00 1.5895732619895167e+00 1.5201842263966512e+01 -1 5 0
4061 444 1 4.1499999999999998e-01 7.2672748444786128e+00 7.8400090556577142e+00 9.8510026942869473e+00 6 -1 0
5890 444 2 -8.2999999999999996e-01 1.1900047819461683e+00 2.8943700780180925e-01 1.2921945788192529e+01 -5 0 0
2057 444 1 4.1499999999999998e-01 7.0456213069675888e+00 1.5724948809443431e+00 1.3471844807070601e+01 6 -1 0
3665 444 1 4.1499999999999998e-01 5.1551087650006702e+00 3.1042441577695405e+00 1.6211360175414530e+01 0 3 0
1375 444 2 -8.2999999999999996e-01 3.6348381707887691e+00 5.9665030331261626e+00 1.5452716858925564e+01 1 3 0
1377 444 1 4.1499999999999998e-01 4.0592221871366414e+00 5.2936562081960759e+00 1.5985076858733523e+01 1 3 0
454 444 2 -8.2999999999999996e-01 5.7546586823643808e-01 7.3717380237216554e+00 1.3975340751064170e+01 1 -3 0
5891 444 1 4.1499999999999998e-01 6.1199261305005526e-01 1.7822457405071784e-01 1.3676773914648734e+01 -5 0 0
456 444 1 4.1499999999999998e-01 8.4997920193124799e-01 7.7684164892442666e+00 1.3148587259613842e+01 1 -3 0
72 444 1 4.1499999999999998e-01 3.8796676262648377e+00 1.8153228065625275e+00 1.4630534054667255e+01 -1 5 0
71 444 1 4.1499999999999998e-01 4.2345887104684881e+00 1.0090287051174200e+00 1.5861718764357949e+01 -1 5 0
2058 444 1 4.1499999999999998e-01 5.5798296262874825e+00 1.6118283070679433e+00 1.3848412375974368e+01 6 -1 0
3641 444 1 4.1499999999999998e-01 3.2655018130831520e-01 1.6155044043113453e+00 1.0289529018613397e+01 -5 3 0
4131 444 1 4.1499999999999998e-01 1.9562705293723441e+00 1.1598622134560301e+01 1.4850353660953548e+01 0 2 0
5892 444 1 4.1499999999999998e-01 1.6667222696661703e+00 1.0997062170037057e+00 1.3102046134912170e+01 -5 0 0
2313 444 1 4.1499999999999998e-01 4.6371896380222033e+00 1.1728687584434994e-01 1.0644324925449517e+01 -1 0 0
5236 444 2 -8.2999999999999996e-01 1.4382304744343712e+01 7.8139198153755762e+00 1.5720140423340174e+01 -2 -7 0
3384 444 1 4.1499999999999998e-01 9.2382339554548061e+00 9.5654129756182760e-02 1.0241282152126193e+01 -1 4 0
209 444 1 4.1499999999999998e-01 7.6542786057772618e+00 4.0535435294958040e+00 1.0143627558617419e+01 2 -4 0
3983 444 1 4.1499999999999998e-01 1.4885179790685026e+01 7.4461878805791359e-01 1.0794368045609739e+01 2 -2 0
4917 444 1 4.1499999999999998e-01 8.5011160934170569e+00 8.2818331703923498e+00 1.3206075857829854e+01 -1 -2 0
5851 444 2 -8.2999999999999996e-01 1.2594260231862107e+01 2.1950116044992711e+00 1.1278108902713475e+01 0 0 0
2770 444 2 -8.2999999999999996e-01 1.1994435082063223e+01 1.1124768898162696e+01 1.3204285894238701e+01 4 -4 0
5238 444 1 4.1499999999999998e-01 1.4831297364682756e+01 6.9788554491017294e+00 1.5588588929562302e+01 -2 -7 0
1773 444 1 4.1499999999999998e-01 1.1138271320708167e+01 5.7438466491666560e+00 1.0222245517991988e+01 -1 4 0
1024 444 2 -8.2999999999999996e-01 7.6500341191965733e+00 2.4310868599298150e+00 1.0269938067137261e+01 -4 0 0
1025 444 1 4.1499999999999998e-01 7.6727152533797156e+00 1.5144117306651459e+00 9.9953035465913640e+00 -4 0 0
967 444 2 -8.2999999999999996e-01 9.6744717775005782e+00 3.5453264288309905e+00 1.1576100913608579e+01 1 1 0
5248 444 2 -8.2999999999999996e-01 9.5299148548534394e+00 7.0129536990070411e+00 1.0380925374645528e+01 -1 -1 0
5249 444 1 4.1499999999999998e-01 9.1369497134224087e+00 7.3819824291038127e+00 1.1171891898133504e+01 -1 -1 0
5250 444 1 4.1499999999999998e-01 8.9839955303149637e+00 6.2546686486053984e+00 1.0173060665026222e+01 -1 -1 0
4945 444 2 -8.2999999999999996e-01 1.1540367224704244e+01 8.7107817886509888e+00 9.8886335321931611e+00 -1 0 0
4946 444 1 4.1499999999999998e-01 1.2154792146664114e+01 8.4924874447389964e+00 1.0589391255967728e+01 -1 0 0
4947 444 1 4.1499999999999998e-01 1.0817277363848856e+01 8.0940487880876653e+00 1.0002709166686991e+01 -1 0 0
1771 444 2 -8.2999999999999996e-01 1.1536688971109989e+01 4.8859750104571340e+00 1.0369049737362781e+01 -1 4 0
255 444 1 4.1499999999999998e-01 1.3592891922098318e+01 8.4206382736335978e+00 1.2446785427507637e+01 -1 -7 0
1772 444 1 4.1499999999999998e-01 1.0831970655051462e+01 4.3542128306106438e+00 1.0738959116435892e+01 -1 4 0
253 444 2 -8.2999999999999996e-01 1.3272801472629940e+01 7.7656202494719944e+00 1.1826523084776289e+01 -1 -7 0
254 444 1 4.1499999999999998e-01 1.2715854724938399e+01 7.1903790596374995e+00 1.2351060749976760e+01 -1 -7 0
3067 444 2 -8.2999999999999996e-01 1.1636168360874391e+01 6.3246608514982592e+00 1.3519744418983393e+01 1 -1 0
3254 444 1 4.1499999999999998e-01 1.1197438846870815e+01 1.0372763983039100e+01 1.0075520544499891e+01 2 0 0
3068 444 1 4.1499999999999998e-01 1.1771058225060147e+01 5.4059363943934500e+00 1.3752084576128953e+01 1 -1 0
968 444 1 4.1499999999999998e-01 9.1702081605172410e+00 4.1703527129468396e+00 1.2096958031823849e+01 1 1 0
4671 444 1 4.1499999999999998e-01 9.3589737665498660e+00 4.4962444719794554e+00 1.4279221719446181e+01 -1 2 0
3069 444 1 4.1499999999999998e-01 1.1067649110857221e+01 6.6658205727701167e+00 1.4210126741515124e+01 1 -1 0
5853 444 1 4.1499999999999998e-01 1.2028392444544393e+01 2.9337275260259617e+00 1.1502440451822808e+01 0 0 0
4669 444 2 -8.2999999999999996e-01 8.8222999993882780e+00 5.0210690809710785e+00 1.3685275400342849e+01 -1 2 0
4670 444 1 4.1499999999999998e-01 8.0518382832786468e+00 5.2561028049707401e+00 1.4202363137468113e+01 -1 2 0
5852 444 1 4.1499999999999998e-01 1.3327521577688017e+01 2.5891978384467715e+00 1.0805692360508447e+01 0 0 0
4916 444 1 4.1499999999999998e-01 8.6019517091429751e+00 6.7746330134293045e+00 1.3105697572107985e+01 -1 -2 0
4915 444 2 -8.2999999999999996e-01 8.1470771724873305e+00 7.5294036334287036e+00 1.2732008950466170e+01 -1 -2 0
969 444 1 4.1499999999999998e-01 9.0154372186153005e+00 3.0584799006490946e+00 1.1081241591030198e+01 1 1 0
5555 444 1 4.1499999999999998e-01 1.3311174949600549e+01 1.0054042434742303e+01 1.3422511873121966e+01 2 -3 0
5554 444 2 -8.2999999999999996e-01 1.4123644619936886e+01 9.5482611339364869e+00 1.3404899781699255e+01 2 -3 0
4647 444 1 4.1499999999999998e-01 1.5001973267939123e+01 8.7108723977086271e+00 1.0452075690483985e+01 -2 -5 0
3282 444 1 4.1499999999999998e-01 1.1647381217762659e+01 9.9023310974399736e-01 1.0364741389170320e+01 -2 -2 0
3058 444 2 -8.2999999999999996e-01 1.0577479229081137e+01 1.5933111615261859e+00 1.3203315743547787e+01 7 7 0
2371 444 2 -8.2999999999999996e-01 9.4487853001180824e+00 2.9321417162817993e+00 1.5460208324127864e+01 2 -4 0
1273 444 2 -8.2999999999999996e-01 1.2134679445304315e+01 3.9174392007625842e+00 1.4625031575951466e+01 -1 0 0
1274 444 1 4.1499999999999998e-01 1.1890611914033288e+01 2.9933209795473572e+00 1.4573375364398345e+01 -1 0 0
4747 444 2 -8.2999999999999996e-01 9.7348333237102462e+00 9.7017505801196204e+00 1.3571914197072163e+01 -4 2 0
4749 444 1 4.1499999999999998e-01 1.0663615426852529e+01 9.8995412120653832e+00 1.3451601805009421e+01 -4 2 0
5640 444 1 4.1499999999999998e-01 7.7667147943685899e+00 1.0206844654942490e+01 1.0335416722743112e+01 3 3 0
572 444 1 4.1499999999999998e-01 1.3997484847903527e+01 1.1349223938829434e+00 1.4454153331993568e+01 6 2 0
3059 444 1 4.1499999999999998e-01 1.0116432841234625e+01 2.1941026163204804e+00 1.2617893801343605e+01 7 7 0
1275 444 1 4.1499999999999998e-01 1.3091696367937669e+01 3.9122556274785443e+00 1.4643018910703601e+01 -1 0 0
4748 444 1 4.1499999999999998e-01 9.2932989061374727e+00 1.0543055563176422e+01 1.3455783449864210e+01 -4 2 0
5639 444 1 4.1499999999999998e-01 8.1628062121318727e+00 1.1065434654748435e+01 1.1517715438021723e+01 3 3 0
4364 444 1 4.1499999999999998e-01 1.4840242494960023e+01 3.8102520452363478e+00 1.0352806643814551e+01 3 0 0
3280 444 2 -8.2999999999999996e-01 1.0985941801441713e+01 3.0353192911851740e-01 1.0280053379897003e+01 -2 -2 0
3253 444 2 -8.2999999999999996e-01 1.1189018251601023e+01 1.1321357872530795e+01 1.0203311581520211e+01 2 0 0
5638 444 2 -8.2999999999999996e-01 8.3416298926990748e+00 1.0929541326277295e+01 1.0587238344902339e+01 3 3 0
3255 444 1 4.1499999999999998e-01 1.0262065492106931e+01 1.1558723182449889e+01 1.0177855387820216e+01 2 0 0
5237 444 1 4.1499999999999998e-01 1.4081572361765021e+01 8.0648989936247695e+00 1.4846755265031829e+01 -2 -7 0
4363 444 2 -8.2999999999999996e-01 1.5169434114801231e+01 2.9371938362411334e+00 1.0566428032872343e+01 3 0 0
4627 444 2 -8.2999999999999996e-01 1.4147515489927919e+01 5.2397357068849981e+00 1.0500340466434128e+01 5 1 0
4628 444 1 4.1499999999999998e-01 1.3197987502896092e+01 5.1323639514573447e+00 1.0444664960197976e+01 5 1 0
2772 444 1 4.1499999999999998e-01 1.1666058981311931e+01 1.1676850299075390e+01 1.2494632546415255e+01 4 -4 0
2373 444 1 4.1499999999999998e-01 9.5463302536907317e+00 2.1216473586894478e+00 1.4960392557756720e+01 2 -4 0
1417 444 2 -8.2999999999999996e-01 1.0358936357121253e+01 7.1018386282252983e+00 1.6216228444982189e+01 -3 1 0
571 444 2 -8.2999999999999996e-01 1.4368776038685356e+01 1.7541287941585222e+00 1.5082610297643576e+01 6 2 0
3909 444 1 4.1499999999999998e-01 1.1045482665221495e+01 1.1144234421951973e+01 1.5876197992602776e+01 -2 -2 0
573 444 1 4.1499999999999998e-01 1.4729992121668728e+01 2.4568730294449193e+00 1.4542327713184397e+01 6 2 0
4629 444 1 4.1499999999999998e-01 1.4269272213182251e+01 6.1263478140966212e+00 1.0839937452071675e+01 5 1 0
5556 444 1 4.1499999999999998e-01 1.4795808844333850e+01 1.0163625668205494e+01 1.3697736938934277e+01 2 -3 0
3060 444 1 4.1499999999999998e-01 1.1430242793005048e+01 1.4616188574896656e+00 1.2788968058534495e+01 7 7 0
844 444 2 -8.2999999999999996e-01 2.1319050514704876e-01 1.1082235187953758e+01 2.0432377633615360e+01 -1 4 0
4409 444 1 4.1499999999999998e-01 4.0515522129082798e-01 4.8779311490990436e+00 1.9926070544724634e+01 -5 -1 0
4410 444 1 4.1499999999999998e-01 5.6611234085405693e-01 4.0839141953697267e+00 2.1204947026641193e+01 -5 -1 0
845 444 1 4.1499999999999998e-01 2.0175097439956768e-01 1.0268752038905406e+01 1.9928050293077359e+01 -1 4 0
4561 444 2 -8.2999999999999996e-01 6.0547386015776423e+00 1.0104726383718489e+01 1.7834067790562607e+01 5 0 0
2884 444 2 -8.2999999999999996e-01 1.0849791164488920e-03 1.2024190730454323e-02 2.0313130202248317e+01 2 4 0
1895 444 1 4.1499999999999998e-01 1.2112411331419537e-01 2.7962842934322136e+00 1.6692100206899834e+01 1 2 0
4269 444 1 4.1499999999999998e-01 4.4205508557693634e+00 7.3603732379924225e-01 2.3626805763966519e+01 1 7 0
847 444 2 -8.2999999999999996e-01 5.0725204473218746e+00 7.6276435709281483e+00 1.9135436221595938e+01 3 -2 0
848 444 1 4.1499999999999998e-01 5.6001009077894706e+00 6.8337891916009657e+00 1.9047766794602488e+01 3 -2 0
849 444 1 4.1499999999999998e-01 5.4612271900221607e+00 8.2438947050875697e+00 1.8514651827651431e+01 3 -2 0
3664 444 2 -8.2999999999999996e-01 4.9354457958386693e+00 3.9300324200159102e+00 1.6642700705997285e+01 0 3 0
3666 444 1 4.1499999999999998e-01 5.1229540260370250e+00 3.7745639064039191e+00 1.7568391146151537e+01 0 3 0
1960 444 2 -8.2999999999999996e-01 2.4735125065258599e+00 6.2918019230045195e+00 1.8010957921095237e+01 4 -6 0
846 444 1 4.1499999999999998e-01 1.1397498956802072e+00 1.1315204629484773e+01 2.0491069111225407e+01 -1 4 0
191 444 1 4.1499999999999998e-01 1.6079459645129848e+00 2.1738467660669065e+00 1.8569341622238486e+01 -1 2 0
4579 444 2 -8.2999999999999996e-01 2.4936931027287743e+00 1.1342396668601825e+01 2.3144537716739297e+01 -1 0 0
4581 444 1 4.1499999999999998e-01 2.2202907037901727e+00 1.0425180036770488e+01 2.3158576655764104e+01 -1 0 0
5787 444 1 4.1499999999999998e-01 2.6920716977192507e+00 5.2413448131230531e+00 2.3558885023992737e+01 1 1 0
190 444 2 -8.2999999999999996e-01 2.0487584081167221e+00 1.5552694412490422e+00 1.9151817636357254e+01 -1 2 0
2273 444 1 4.1499999999999998e-01 3.9680705684820259e+00 6.2391021048800335e+00 2.0421432255804806e+01 -1 5 0
1423 444 2 -8.2999999999999996e-01 2.0787470576471070e+00 8.5569587248579726e+00 1.9564580371554552e+01 3 -5 0
1425 444 1 4.1499999999999998e-01 2.3996773218911862e+00 7.7156479362162624e+00 1.9239877802330430e+01 3 -5 0
1424 444 1 4.1499999999999998e-01 1.1259321829696758e+00 8.4654812347472799e+00 1.9567320215812924e+01 3 -5 0
4563 444 1 4.1499999999999998e-01 6.0406454208988087e+00 1.0447017942303793e+01 1.8727862903780988e+01 5 0 0
5307 444 1 4.1499999999999998e-01 3.2875178356283925e+00 3.6215439703538350e+00 2.0997327306489634e+01 -1 -3 0
2769 444 1 4.1499999999999998e-01 2.3750449073415072e+00 8.7170509095915545e+00 2.1537972389419007e+01 -5 0 0
2767 444 2 -8.2999999999999996e-01 2.8533259107282860e+00 8.5853854249551063e+00 2.2356595795529980e+01 -5 0 0
2274 444 1 4.1499999999999998e-01 3.1956671490940214e+00 5.5684367892787074e+00 1.9305414269788812e+01 -1 5 0
2768 444 1 4.1499999999999998e-01 3.7321973978084171e+00 8.9196589571250495e+00 2.2177489665371461e+01 -5 0 0
2272 444 2 -8.2999999999999996e-01 3.6663648695927900e+00 5.3828805880733963e+00 2.0117968526847328e+01 -1 5 0