LAMMPS data file via write_data, version 11 Aug 2017, timestep = 500000

7154 atoms
4 atom types
4000 bonds
1 bond types
2000 angles
1 angle types

0.0000000000000000e+00 4.5679949999999998e+01 xlo xhi
0.0000000000000000e+00 4.6885919999999999e+01 ylo yhi
0.0000000000000000e+00 6.5000000000000000e+01 zlo zhi

Masses

1 1.0079
2 15.9994
3 18.9984
4 107.868

Bond Coeffs # harmonic

1 450 0.9572

Angle Coeffs # harmonic

1 55 104.52

Atoms # full

6003 444 4 0.0000000000000000e+00 1.6907200000000000e+00 0.0000000000000000e+00 0.0000000000000000e+00 0 0 0
6004 444 4 0.0000000000000000e+00 4.2285000000000004e+00 1.4651900000000000e+00 0.0000000000000000e+00 0 0 0
6005 444 4 6.9400000000000000e-03 1.6907700000000001e+00 0.0000000000000000e+00 7.1781499999999996e+00 0 0 0
6006 444 4 6.9400000000000000e-03 4.2285500000000003e+00 1.4651900000000000e+00 7.1781499999999996e+00 0 0 0
6007 444 4 0.0000000000000000e+00 2.5366499999999998e+00 1.4651900000000000e+00 2.3926400000000001e+00 0 0 0
6008 444 4 0.0000000000000000e+00 5.0744199999999999e+00 0.0000000000000000e+00 2.3926400000000001e+00 0 0 0
6009 444 4 0.0000000000000000e+00 8.4509000000000001e-01 1.4651900000000000e+00 4.7824200000000001e+00 0 0 0
6010 444 4 0.0000000000000000e+00 3.3828600000000000e+00 0.0000000000000000e+00 4.7824499999999999e+00 0 0 0
6011 444 4 0.0000000000000000e+00 1.6907200000000000e+00 2.9303699999999999e+00 0.0000000000000000e+00 0 0 0
6012 444 4 0.0000000000000000e+00 4.2285000000000004e+00 4.3955599999999997e+00 0.0000000000000000e+00 0 0 0
6013 444 4 6.9400000000000000e-03 1.6907700000000001e+00 2.9303699999999999e+00 7.1781899999999998e+00 0 0 0
6014 444 4 6.9400000000000000e-03 4.2285500000000003e+00 4.3955599999999997e+00 7.1781600000000001e+00 0 0 0
6015 444 4 0.0000000000000000e+00 2.5366499999999998e+00 4.3955599999999997e+00 2.3926400000000001e+00 0 0 0
6016 444 4 0.0000000000000000e+00 5.0744199999999999e+00 2.9303699999999999e+00 2.3926400000000001e+00 0 0 0
6017 444 4 0.0000000000000000e+00 8.4509000000000001e-01 4.3955599999999997e+00 4.7824499999999999e+00 0 0 0
6018 444 4 0.0000000000000000e+00 3.3828700000000000e+00 2.9303699999999999e+00 4.7824400000000002e+00 0 0 0
6019 444 4 0.0000000000000000e+00 1.6907200000000000e+00 5.8607399999999998e+00 0.0000000000000000e+00 0 0 0
6020 444 4 0.0000000000000000e+00 4.2285000000000004e+00 7.3259299999999996e+00 0.0000000000000000e+00 0 0 0
6021 444 4 6.9400000000000000e-03 1.6907700000000001e+00 5.8607399999999998e+00 7.1781499999999996e+00 0 0 0
6022 444 4 6.9400000000000000e-03 4.2285500000000003e+00 7.3259299999999996e+00 7.1781499999999996e+00 0 0 0
6023 444 4 0.0000000000000000e+00 2.5366499999999998e+00 7.3259299999999996e+00 2.3926400000000001e+00 0 0 0
6024 444 4 0.0000000000000000e+00 5.0744199999999999e+00 5.8607399999999998e+00 2.3926400000000001e+00 0 0 0
6025 444 4 0.0000000000000000e+00 8.4509000000000001e-01 7.3259299999999996e+00 4.7824200000000001e+00 0 0 0
6026 444 4 0.0000000000000000e+00 3.3828600000000000e+00 5.8607399999999998e+00 4.7824499999999999e+00 0 0 0
6131 444 4 0.0000000000000000e+00 6.7662699999999996e+00 0.0000000000000000e+00 0.0000000000000000e+00 0 0 0
6133 444 4 6.9400000000000000e-03 6.7663200000000003e+00 0.0000000000000000e+00 7.1781499999999996e+00 0 0 0
6135 444 4 0.0000000000000000e+00 7.6121999999999996e+00 1.4651900000000000e+00 2.3926400000000001e+00 0 0 0
6137 444 4 0.0000000000000000e+00 5.9206399999999997e+00 1.4651900000000000e+00 4.7824200000000001e+00 0 0 0
6139 444 4 0.0000000000000000e+00 6.7662699999999996e+00 2.9303699999999999e+00 0.0000000000000000e+00 0 0 0
6141 444 4 6.9400000000000000e-03 6.7663200000000003e+00 2.9303699999999999e+00 7.1781899999999998e+00 0 0 0
6143 444 4 0.0000000000000000e+00 7.6121999999999996e+00 4.3955599999999997e+00 2.3926400000000001e+00 0 0 0
6145 444 4 0.0000000000000000e+00 5.9206399999999997e+00 4.3955599999999997e+00 4.7824499999999999e+00 0 0 0
6147 444 4 0.0000000000000000e+00 6.7662699999999996e+00 5.8607399999999998e+00 0.0000000000000000e+00 0 0 0
6149 444 4 6.9400000000000000e-03 6.7663200000000003e+00 5.8607399999999998e+00 7.1781499999999996e+00 0 0 0
6151 444 4 0.0000000000000000e+00 7.6121999999999996e+00 7.3259299999999996e+00 2.3926400000000001e+00 0 0 0
6153 444 4 0.0000000000000000e+00 5.9206399999999997e+00 7.3259299999999996e+00 4.7824200000000001e+00 0 0 0
6132 444 4 0.0000000000000000e+00 9.3040500000000002e+00 1.4651900000000000e+00 0.0000000000000000e+00 0 0 0
6134 444 4 6.9400000000000000e-03 9.3041000000000000e+00 1.4651900000000000e+00 7.1781499999999996e+00 0 0 0
6136 444 4 0.0000000000000000e+00 1.0149970000000000e+01 0.0000000000000000e+00 2.3926400000000001e+00 0 0 0
6138 444 4 0.0000000000000000e+00 8.4584100000000007e+00 0.0000000000000000e+00 4.7824499999999999e+00 0 0 0
6140 444 4 0.0000000000000000e+00 9.3040500000000002e+00 4.3955599999999997e+00 0.0000000000000000e+00 0 0 0
6142 444 4 6.9400000000000000e-03 9.3041000000000000e+00 4.3955599999999997e+00 7.1781600000000001e+00 0 0 0
6144 444 4 0.0000000000000000e+00 1.0149970000000000e+01 2.9303699999999999e+00 2.3926400000000001e+00 0 0 0
6146 444 4 0.0000000000000000e+00 8.4584200000000003e+00 2.9303699999999999e+00 4.7824400000000002e+00 0 0 0
6148 444 4 0.0000000000000000e+00 9.3040500000000002e+00 7.3259299999999996e+00 0.0000000000000000e+00 0 0 0
6150 444 4 6.9400000000000000e-03 9.3041000000000000e+00 7.3259299999999996e+00 7.1781499999999996e+00 0 0 0
6152 444 4 0.0000000000000000e+00 1.0149970000000000e+01 5.8607399999999998e+00 2.3926400000000001e+00 0 0 0
6154 444 4 0.0000000000000000e+00 8.4584100000000007e+00 5.8607399999999998e+00 4.7824499999999999e+00 0 0 0
6265 444 4 0.0000000000000000e+00 1.0996190000000000e+01 1.4651900000000000e+00 4.7824200000000001e+00 0 0 0
6273 444 4 0.0000000000000000e+00 1.0996190000000000e+01 4.3955599999999997e+00 4.7824499999999999e+00 0 0 0
6281 444 4 0.0000000000000000e+00 1.0996190000000000e+01 7.3259299999999996e+00 4.7824200000000001e+00 0 0 0
2434 444 2 -8.2999999999999996e-01 5.5602148771948254e+00 4.1471530443031375e+00 1.0393606217744228e+01 -3 1 0
2435 444 1 4.1499999999999998e-01 4.8042003153315820e+00 4.0816429816329851e+00 1.0977029142009542e+01 -3 1 0
2436 444 1 4.1499999999999998e-01 5.5971570962021318e+00 5.0725298318990566e+00 1.0151645580903468e+01 -3 1 0
4698 444 1 4.1499999999999998e-01 4.5801387431613252e+00 6.7144594251394665e+00 1.3201197136390180e+01 -4 -2 0
5857 444 2 -8.2999999999999996e-01 2.2002626866066732e+00 3.1354443831133172e+00 9.9978524194197007e+00 3 1 0
1323 444 1 4.1499999999999998e-01 3.3908307481170019e+00 5.0096121790186334e+00 1.2336156866661447e+01 0 -1 0
1322 444 1 4.1499999999999998e-01 3.4225839190967684e+00 3.5773286081003040e+00 1.2825493877013228e+01 0 -1 0
1321 444 2 -8.2999999999999996e-01 3.5333738667987395e+00 4.1110508217315251e+00 1.2038666029773609e+01 0 -1 0
3529 444 2 -8.2999999999999996e-01 8.5829053072079819e+00 4.6375320458887073e+00 1.0731980382233591e+01 2 2 0
3530 444 1 4.1499999999999998e-01 8.6801261757605612e+00 3.9897803379910419e+00 1.1429976295547206e+01 2 2 0
1412 444 1 4.1499999999999998e-01 5.5877127901458490e-01 4.2783200397085848e+00 1.0511418486860814e+01 2 2 0
304 444 2 -8.2999999999999996e-01 8.4774734691927094e+00 6.6945215845505865e+00 1.4992545653149273e+01 -3 -1 0
306 444 1 4.1499999999999998e-01 9.0899361249904196e+00 5.9604967054071478e+00 1.4944278343558912e+01 -3 -1 0
3531 444 1 4.1499999999999998e-01 7.6395931733861389e+00 4.7899337174247369e+00 1.0675694458201860e+01 2 2 0
900 444 1 4.1499999999999998e-01 6.4948451267740479e+00 2.3735744986753815e+00 1.4059667827320546e+01 1 -2 0
4374 444 1 4.1499999999999998e-01 8.4723011363411906e+00 2.5299689519452078e+00 1.2895049753539192e+01 2 0 0
4939 444 2 -8.2999999999999996e-01 2.1242157031001994e+00 6.9659577203656280e+00 9.9740540461205818e+00 -1 0 0
1707 444 1 4.1499999999999998e-01 5.2102204360936870e+00 5.0514747172005334e+00 1.5268593912684334e+01 -2 -2 0
89 444 1 4.1499999999999998e-01 1.1348751718802825e+00 1.5182847824038204e+00 9.7874160193348398e+00 0 1 0
4654 444 2 -8.2999999999999996e-01 1.0442626390895407e+01 2.4938320290989915e+00 1.0004450397759131e+01 -4 -2 0
612 444 1 4.1499999999999998e-01 5.6469348219657407e+00 2.4227298340031362e+00 1.0056661560794469e+01 -2 -3 0
4372 444 2 -8.2999999999999996e-01 9.3992165070003679e+00 2.7388725096331052e+00 1.2779206472397552e+01 2 0 0
4373 444 1 4.1499999999999998e-01 9.8509521483032891e+00 1.9045969201079638e+00 1.2906295695309876e+01 2 0 0
4655 444 1 4.1499999999999998e-01 9.9880842179472396e+00 3.3360851548102834e+00 1.0019712580334355e+01 -4 -2 0
610 444 2 -8.2999999999999996e-01 5.5409198581071823e+00 1.4714555553760411e+00 1.0065028123199522e+01 -2 -3 0
5966 444 1 4.1499999999999998e-01 1.0043217646798894e+01 4.0711717130576055e+00 1.3707994726521829e+01 -2 3 0
898 444 2 -8.2999999999999996e-01 7.0484764754647653e+00 2.8612188886643781e+00 1.4669527294867391e+01 1 -2 0
1705 444 2 -8.2999999999999996e-01 4.7446441457639272e+00 4.2395488021734842e+00 1.5469210273832935e+01 -2 -2 0
899 444 1 4.1499999999999998e-01 6.4809913493481730e+00 3.5540967888263113e+00 1.5007333782927663e+01 1 -2 0
5965 444 2 -8.2999999999999996e-01 1.0436562320540512e+01 4.7549280245540837e+00 1.4250202395651858e+01 -2 3 0
90 444 1 4.1499999999999998e-01 1.3772234162927968e+00 4.0083498005895107e-01 1.0779619888886847e+01 0 1 0
32 444 1 4.1499999999999998e-01 6.7434784899213556e+00 6.7071470189973903e+00 1.4556753872529631e+01 0 -2 0
305 444 1 4.1499999999999998e-01 8.7880190744149846e+00 7.2180125504567645e+00 1.5731295105052228e+01 -3 -1 0
1457 444 1 4.1499999999999998e-01 2.0348747585047580e+00 3.5092048083507561e+00 1.4569196284359464e+01 -1 1 0
1456 444 2 -8.2999999999999996e-01 2.8072492839910730e+00 3.0051019374947541e+00 1.4313169361777161e+01 -1 1 0
1458 444 1 4.1499999999999998e-01 3.5283081398116853e+00 3.4089153046959928e+00 1.4796119513153771e+01 -1 1 0
5777 444 1 4.1499999999999998e-01 1.0014991798256290e-01 3.1136275882169255e+00 1.5623593509743094e+01 1 1 0
5858 444 1 4.1499999999999998e-01 2.6443649731431056e+00 3.1236488981395847e+00 1.0845712094821026e+01 3 1 0
3800 444 1 4.1499999999999998e-01 9.5434006022225688e+00 6.3800544172464058e+00 1.0705456940039637e+01 1 -2 0
4696 444 2 -8.2999999999999996e-01 3.9660874066677971e+00 6.8939579696572233e+00 1.2489190380973110e+01 -4 -2 0
5859 444 1 4.1499999999999998e-01 2.7454364455855607e+00 3.6993613259642237e+00 9.4492038233398219e+00 3 1 0
33 444 1 4.1499999999999998e-01 5.6944531420150231e+00 7.1283839128243258e+00 1.5563729809152939e+01 0 -2 0
2429 444 1 4.1499999999999998e-01 1.2153481941003055e+00 5.4659405936758452e+00 1.4477570982265581e+01 0 -2 0
31 444 2 -8.2999999999999996e-01 5.8676578028292115e+00 6.4873295778270634e+00 1.4874323256523390e+01 0 -2 0
4941 444 1 4.1499999999999998e-01 3.0035205405598919e+00 6.6722306514106018e+00 9.7357700108387490e+00 -1 0 0
2428 444 2 -8.2999999999999996e-01 1.6832877082567088e+00 6.1353379133022781e+00 1.4976742399547099e+01 0 -2 0
5152 444 2 -8.2999999999999996e-01 5.4864255354941029e+00 1.2410812593753144e+00 1.3038687059558319e+01 -1 -2 0
4773 444 1 4.1499999999999998e-01 4.5511720152706756e+00 7.0409175803186468e+00 1.0876236342267644e+01 2 3 0
1607 444 1 4.1499999999999998e-01 2.0109919172093798e+00 1.3468344371928633e+00 1.4181396578350730e+01 0 4 0
3799 444 2 -8.2999999999999996e-01 9.8523869624876834e+00 7.0404990109865002e+00 1.0085317285735510e+01 1 -2 0
2430 444 1 4.1499999999999998e-01 1.3785536664437492e+00 6.9652040362951926e+00 1.4609739070599328e+01 0 -2 0
5154 444 1 4.1499999999999998e-01 5.9519902174859833e+00 6.6320608364901235e-01 1.2434086590327833e+01 -1 -2 0
3801 444 1 4.1499999999999998e-01 1.0221957233102758e+01 6.5353837869763414e+00 9.3610875672448444e+00 1 -2 0
4771 444 2 -8.2999999999999996e-01 4.9814497572599112e+00 6.9147054234977308e+00 1.0030562988898989e+01 2 3 0
5776 444 2 -8.2999999999999996e-01 3.0104305634886941e-01 3.5921947480731093e+00 1.4819325324735948e+01 1 1 0
88 444 2 -8.2999999999999996e-01 6.8862067065301147e-01 8.1558689254787553e-01 1.0259967102669338e+01 0 1 0
1674 444 1 4.1499999999999998e-01 1.0399148589271864e+01 3.8456969063260202e+00 1.6007071848930238e+01 2 -3 0
611 444 1 4.1499999999999998e-01 6.4325401285536818e+00 1.1300063575207351e+00 9.9967814081517474e+00 -2 -3 0
5762 444 1 4.1499999999999998e-01 8.6292748481708657e+00 2.8857033646760438e-01 1.0752687981807593e+01 2 1 0
1608 444 1 4.1499999999999998e-01 1.9309830217264092e+00 6.9435717345087272e-02 1.3372850428397296e+01 0 4 0
5761 444 2 -8.2999999999999996e-01 8.4068609695291396e+00 1.1015205965000914e+00 1.0298952573584847e+01 2 1 0
1413 444 1 4.1499999999999998e-01 1.0598020126826311e+00 5.6864550489776606e+00 1.0270545206315022e+01 2 2 0
5153 444 1 4.1499999999999998e-01 4.7958289012056721e+00 1.6377662804268680e+00 1.2507698171770624e+01 -1 -2 0
4656 444 1 4.1499999999999998e-01 1.1368234879292864e+01 2.7189178542746486e+00 1.0098351042954755e+01 -4 -2 0
4697 444 1 4.1499999999999998e-01 3.2176064110442018e+00 7.3099404463093487e+00 1.2916937355508649e+01 -4 -2 0
5967 444 1 4.1499999999999998e-01 1.1271346969304339e+01 4.9487682296086088e+00 1.3823831073067783e+01 -2 3 0
5763 444 1 4.1499999999999998e-01 9.2260111180533979e+00 1.5962601920495656e+00 1.0277558016961189e+01 2 1 0
4194 444 1 4.1499999999999998e-01 1.1040916382203248e+01 7.8373760072143861e-01 9.7487637675149550e+00 -1 1 0
1606 444 2 -8.2999999999999996e-01 1.4310157105491881e+00 6.1165129330539802e-01 1.3982987267355044e+01 0 4 0
1411 444 2 -8.2999999999999996e-01 3.2318532940591999e-01 5.1974902511304588e+00 1.0637345766412738e+01 2 2 0
3735 444 1 4.1499999999999998e-01 7.2518312429128029e-01 7.7698676732368890e+00 1.2752224846641942e+01 0 1 0
3734 444 1 4.1499999999999998e-01 1.9319121230706728e+00 7.7673145373688408e+00 1.1838061918123451e+01 0 1 0
4772 444 1 4.1499999999999998e-01 5.3948530193203013e+00 7.7575161143337414e+00 9.8434807370597746e+00 2 3 0
1706 444 1 4.1499999999999998e-01 4.7251278999040238e+00 4.2041132642698669e+00 1.6425555038980562e+01 -2 -2 0
26 444 1 4.1499999999999998e-01 1.1418738692463337e+00 6.1625662216026296e+00 1.8295455538357725e+01 -2 -3 0
3711 444 1 4.1499999999999998e-01 5.3081427853710628e-01 5.0740324472976592e+00 2.1676236121570220e+01 0 2 0
1626 444 1 4.1499999999999998e-01 1.0111335010773024e+01 4.4977096512841994e+00 2.1950169719087747e+01 1 -1 0
27 444 1 4.1499999999999998e-01 9.3403466278782765e-01 5.6532806217083538e+00 1.6885020688374961e+01 -2 -3 0
1624 444 2 -8.2999999999999996e-01 9.1884468710048903e+00 4.5311702889852796e+00 2.1698394933515132e+01 1 -1 0
918 444 1 4.1499999999999998e-01 1.0711662246002923e+01 5.3201128602452685e-01 2.1679490253766815e+01 2 0 0
2345 444 1 4.1499999999999998e-01 9.5371123556777633e+00 1.9799551655402960e+00 2.0816042007513587e+01 2 0 0
1625 444 1 4.1499999999999998e-01 9.1558991362242423e+00 4.0944111441024180e+00 2.0847269773345406e+01 1 -1 0
3866 444 1 4.1499999999999998e-01 3.1873418442969208e+00 6.3091213277206935e+00 2.0126946584435668e+01 1 -2 0
5338 444 2 -8.2999999999999996e-01 1.5472762107130178e+00 1.6374160525023842e+00 2.1302528901814540e+01 2 1 0
5370 444 1 4.1499999999999998e-01 7.8317562534848291e+00 6.3250467550628668e+00 2.2684036481881844e+01 -1 1 0
5340 444 1 4.1499999999999998e-01 2.1565324754013422e+00 1.2035864295571816e+00 2.1899882069742670e+01 2 1 0
5757 444 1 4.1499999999999998e-01 1.9449454181539365e+00 3.9729115659465641e+00 2.3662395101807995e+01 0 0 0
1673 444 1 4.1499999999999998e-01 1.1406739982414107e+01 4.0688774776534826e+00 1.7114702388496113e+01 2 -3 0
3277 444 2 -8.2999999999999996e-01 4.7177644022703173e+00 3.2604812446449905e+00 1.8560781786381163e+01 -2 -2 0
25 444 2 -8.2999999999999996e-01 4.7996248939400260e-01 5.7827545629787691e+00 1.7717659252165536e+01 -2 -3 0
5756 444 1 4.1499999999999998e-01 2.5551639723409738e+00 4.4575154842159659e+00 2.2364439941091348e+01 0 0 0
5952 444 1 4.1499999999999998e-01 9.7853417617314129e+00 3.3283860061952009e+00 1.8535060772206933e+01 1 0 0
4694 444 1 4.1499999999999998e-01 5.3877315234933665e+00 5.5717406877541986e+00 2.0514533596020488e+01 3 1 0
5951 444 1 4.1499999999999998e-01 8.7548243391535649e+00 2.2194743680057702e+00 1.8519438786396670e+01 1 0 0
1672 444 2 -8.2999999999999996e-01 1.0503701390274122e+01 3.7933470274134411e+00 1.6957104061990584e+01 2 -3 0
5352 444 1 4.1499999999999998e-01 6.9373309716356433e+00 2.7562009304236481e+00 2.4052645299962961e+01 2 2 0
3279 444 1 4.1499999999999998e-01 5.3034883676786251e+00 3.7503249046708436e+00 1.9138027784457098e+01 -2 -2 0
786 444 1 4.1499999999999998e-01 1.3484474927977776e+00 4.1373905772021367e+00 1.9255898781249162e+01 -1 5 0
784 444 2 -8.2999999999999996e-01 1.6827932088190773e+00 3.2914675497815593e+00 1.8957806151800177e+01 -1 5 0
1992 444 1 4.1499999999999998e-01 4.1557501755367221e-01 3.0593205308303557e+00 1.7661988637406790e+01 -1 1 0
749 444 1 4.1499999999999998e-01 3.8935858175836713e+00 1.4920421776613557e+00 1.8676016109476677e+01 -3 1 0
748 444 2 -8.2999999999999996e-01 3.6674952603732676e+00 6.0807960904374470e-01 1.8965370028944385e+01 -3 1 0
5304 444 1 4.1499999999999998e-01 4.7389245453590130e+00 3.1953596641388469e+00 2.3175594328975720e+01 1 0 0
5303 444 1 4.1499999999999998e-01 4.0217851793079067e+00 2.6036105822780540e+00 2.1980839373890419e+01 1 0 0
4695 444 1 4.1499999999999998e-01 4.3763907460988873e+00 4.9385149387029701e+00 2.1446257962106589e+01 3 1 0
5302 444 2 -8.2999999999999996e-01 4.2346529349462898e+00 3.4379162936765906e+00 2.2398993832435966e+01 1 0 0
5350 444 2 -8.2999999999999996e-01 7.7270125845793283e+00 2.6598204989767975e+00 2.3520343014053154e+01 2 2 0
5351 444 1 4.1499999999999998e-01 7.8683418875209421e+00 3.5273696176030387e+00 2.3141375405822583e+01 2 2 0
5950 444 2 -8.2999999999999996e-01 9.3588609494546020e+00 2.6833704022300338e+00 1.9099242362819325e+01 1 0 0
5339 444 1 4.1499999999999998e-01 9.2449214021713932e-01 9.5344994907768343e-01 2.1056434565238050e+01 2 1 0
5689 444 2 -8.2999999999999996e-01 4.0085170746871928e+00 6.3897231808639654e-01 2.1961389216133281e+01 3 -3 0
785 444 1 4.1499999999999998e-01 1.7477838319235057e+00 2.7648599486694398e+00 1.9754482476846370e+01 -1 5 0
1609 444 2 -8.2999999999999996e-01 9.4779521335865571e+00 5.7685647521121020e+00 1.8524827709978045e+01 1 1 0
1952 444 1 4.1499999999999998e-01 7.4796538229095715e+00 4.7787479914284061e+00 1.9639951242463894e+01 -2 0 0
3278 444 1 4.1499999999999998e-01 3.9142976925923367e+00 3.7802034018475656e+00 1.8537068631984930e+01 -2 -2 0
1611 444 1 4.1499999999999998e-01 9.8269945745944458e+00 4.9646036942153060e+00 1.8140056667503639e+01 1 1 0
1379 444 1 4.1499999999999998e-01 7.4229963516063311e+00 2.1478707403206578e+00 1.6572229185925789e+01 -2 -1 0
1378 444 2 -8.2999999999999996e-01 7.3781654351753598e+00 2.1366427887420842e+00 1.7528313110424044e+01 -2 -1 0
4693 444 2 -8.2999999999999996e-01 4.4870938286899422e+00 5.6595974019940121e+00 2.0826567062510300e+01 3 1 0
1380 444 1 4.1499999999999998e-01 6.5619053901955740e+00 2.5915754126944068e+00 1.7735648266865340e+01 -2 -1 0
5368 444 2 -8.2999999999999996e-01 7.5730342079289299e+00 7.2446324934274058e+00 2.2744508159939866e+01 -1 1 0
5755 444 2 -8.2999999999999996e-01 1.9415232146283681e+00 4.7116440580156675e+00 2.3053712192143770e+01 0 0 0
1951 444 2 -8.2999999999999996e-01 6.6142979453815167e+00 5.1837911482412879e+00 1.9582233307973830e+01 -2 0 0
5369 444 1 4.1499999999999998e-01 7.2610426693679813e+00 7.3475366195863430e+00 2.3643565414825655e+01 -1 1 0
5786 444 1 4.1499999999999998e-01 1.2072818947107302e+00 5.7398009358307371e+00 2.4029187512860705e+01 3 4 0
1953 444 1 4.1499999999999998e-01 6.7743248703086580e+00 6.0346437572843019e+00 1.9173976863179341e+01 -2 0 0
3865 444 2 -8.2999999999999996e-01 2.4615345720848971e+00 6.4801508459093977e+00 1.9526792684573561e+01 1 -2 0
1 444 2 -8.2999999999999996e-01 3.4498799818502945e+00 6.5595431644907212e+00 1.7245102838510213e+01 2 2 0
1394 444 1 4.1499999999999998e-01 9.1996861400535099e+00 6.9981095544770735e+00 2.0019689920774901e+01 0 -4 0
3 444 1 4.1499999999999998e-01 4.0021194255817560e+00 7.3048381355383789e+00 1.7008883437717703e+01 2 2 0
2 444 1 4.1499999999999998e-01 3.0060756362341268e+00 6.3221129823749216e+00 1.6430918002259332e+01 2 2 0
3867 444 1 4.1499999999999998e-01 2.8694066245254364e+00 6.5184921166364767e+00 1.8661690189417051e+01 1 -2 0
1610 444 1 4.1499999999999998e-01 1.0094290375100940e+01 6.4501373925115821e+00 1.8256837760328402e+01 1 1 0
750 444 1 4.1499999999999998e-01 3.9605649953870610e+00 4.0023679162001703e-02 1.8252871080071287e+01 -3 1 0
1251 444 1 4.1499999999999998e-01 8.7333786103837863e+00 3.0688926377339815e-01 2.2847427517679520e+01 5 -5 0
2344 444 2 -8.2999999999999996e-01 9.4388398346584328e+00 1.5905001815991340e+00 2.1684891875088780e+01 2 0 0
5690 444 1 4.1499999999999998e-01 4.8331871316378496e+00 5.6429840927656461e-01 2.1481206949656986e+01 3 -3 0
1250 444 1 4.1499999999999998e-01 7.9051736373322683e+00 3.4000571703102833e-01 2.4114264196114021e+01 5 -5 0
3710 444 1 4.1499999999999998e-01 1.1094201890213329e+00 5.9028124133892499e+00 2.0549189290349752e+01 0 2 0
3709 444 2 -8.2999999999999996e-01 3.2347748816070498e-01 5.4221809377265684e+00 2.0809035699893780e+01 0 2 0
2346 444 1 4.1499999999999998e-01 9.0270325081180776e+00 2.2765569408862008e+00 2.2210223542331324e+01 2 0 0
3841 444 2 -8.2999999999999996e-01 1.1135062582466681e+01 7.2333225807442210e+00 1.6482525034447551e+01 2 1 0
1395 444 1 4.1499999999999998e-01 8.7992958397975585e+00 7.7530441648756980e+00 2.1269352908907408e+01 0 -4 0
2320 444 2 -8.2999999999999996e-01 9.9850178554759084e-01 6.6736948870340518e+00 2.8565222607255208e+01 0 1 0
5394 444 1 4.1499999999999998e-01 9.2117578031214364e-01 3.6890497052079287e+00 2.7306727165074058e+01 -1 -1 0
1176 444 1 4.1499999999999998e-01 9.9823689236086839e+00 6.3486214430067189e+00 3.1732750969777300e+01 -2 1 0
5392 444 2 -8.2999999999999996e-01 5.7925876427875556e-01 4.2769865073342190e+00 2.6633188052930834e+01 -1 -1 0
3480 444 1 4.1499999999999998e-01 2.1586403407754493e+00 2.2871743090710983e+00 2.8143430481767915e+01 -5 3 0
1870 444 2 -8.2999999999999996e-01 3.9180353687275664e+00 1.4266142779164790e+00 3.1516089995060938e+01 1 3 0
374 444 1 4.1499999999999998e-01 2.4494651621397585e+00 7.0157592059769245e+00 2.7298313397801447e+01 0 0 0
2298 444 1 4.1499999999999998e-01 7.8738247387352267e+00 7.3585815345323113e-01 3.1695177900251018e+01 3 -2 0
1872 444 1 4.1499999999999998e-01 3.6322277965079892e+00 2.3243452553603512e+00 3.1346900456212765e+01 1 3 0
848 444 1 4.1499999999999998e-01 4.0654305078301489e-01 2.5859332183852750e+00 2.5740123327068403e+01 -2 0 0
2939 444 1 4.1499999999999998e-01 7.0216702749479012e+00 6.1858579273393455e-01 2.9537567960092083e+01 1 1 0
5393 444 1 4.1499999999999998e-01 1.0018266374701268e+00 5.1172384094439023e+00 2.6811078441528846e+01 -1 -1 0
4204 444 2 -8.2999999999999996e-01 6.9802470350856449e+00 6.9510534913877757e+00 2.5403456961531155e+01 2 -1 0
1175 444 1 4.1499999999999998e-01 1.1324617697161809e+01 7.0482127937672905e+00 3.1761655590132545e+01 -2 1 0
2322 444 1 4.1499999999999998e-01 4.1095700802903051e-01 6.2859770719870305e+00 2.9213835611455117e+01 0 1 0
847 444 2 -8.2999999999999996e-01 4.4335437796114063e-01 1.6357897374256056e+00 2.5630101814954880e+01 -2 0 0
3953 444 1 4.1499999999999998e-01 1.0879769500311310e+01 1.6853784311679032e-01 2.5782100433997442e+01 0 -2 0
2218 444 2 -8.2999999999999996e-01 4.1351360781464747e-01 1.6323230093568948e+00 3.0682252857520094e+01 1 3 0
2940 444 1 4.1499999999999998e-01 5.5480313370956473e+00 4.0871132894696471e-01 2.9813677367764743e+01 1 1 0
1217 444 1 4.1499999999999998e-01 5.8485529856128835e+00 3.2751359563292692e-01 2.6285371735929907e+01 -2 0 0
5697 444 1 4.1499999999999998e-01 1.1181058765248343e+01 4.2868414472764194e+00 2.6888753444972572e+01 1 -1 0
781 444 2 -8.2999999999999996e-01 5.5104972975543971e+00 3.1291315629756808e+00 2.4650662754701720e+01 2 -3 0
5785 444 2 -8.2999999999999996e-01 9.0789063752531041e-01 6.4549009484651094e+00 2.4590639920644030e+01 3 4 0
2306 444 1 4.1499999999999998e-01 1.0096122081379054e+01 1.4860244499860245e+00 2.8064418418829032e+01 -1 3 0
4371 444 1 4.1499999999999998e-01 1.0413234453093350e+01 2.6792199513445394e+00 3.2489411012082570e+01 -5 0 0
849 444 1 4.1499999999999998e-01 1.3503434174792495e+00 1.4579904406039563e+00 2.5381122982034867e+01 -2 0 0
4206 444 1 4.1499999999999998e-01 6.4221830522014693e+00 6.1874090338065235e+00 2.5550577957598367e+01 2 -1 0
782 444 1 4.1499999999999998e-01 5.6585320751416415e+00 2.3613019237885222e+00 2.5202709399988922e+01 2 -3 0
4877 444 1 4.1499999999999998e-01 2.7035460731409544e+00 5.0466282653205263e-01 2.5835045392985858e+01 2 5 0
1216 444 2 -8.2999999999999996e-01 6.0115378392707788e+00 1.2706481224147075e+00 2.6272498040919317e+01 -2 0 0
2305 444 2 -8.2999999999999996e-01 9.4908065085803486e+00 1.7619659993787955e+00 2.8752663480154986e+01 -1 3 0
590 444 1 4.1499999999999998e-01 5.7804876970715240e+00 7.1323603086288987e+00 2.8993139226578148e+01 -5 0 0
2307 444 1 4.1499999999999998e-01 9.3880103668819750e+00 9.8795422955240708e-01 2.9306352245475438e+01 -1 3 0
4876 444 2 -8.2999999999999996e-01 2.9184768779431955e+00 1.3071069787882055e+00 2.6310567155155763e+01 2 5 0
1218 444 1 4.1499999999999998e-01 6.3521347865623810e+00 1.4672666304204485e+00 2.7145176481457405e+01 -2 0 0
783 444 1 4.1499999999999998e-01 5.3803002985890638e+00 3.8479286569537141e+00 2.5269218633006172e+01 2 -3 0
4878 444 1 4.1499999999999998e-01 3.8745680979811121e+00 1.3488422890842544e+00 2.6291076043888623e+01 2 5 0
4398 444 1 4.1499999999999998e-01 9.5795822694942547e+00 5.3740418906338130e+00 2.8275265874107664e+01 5 -3 0
3478 444 2 -8.2999999999999996e-01 1.7152306247899365e+00 2.9374436337356422e+00 2.8688196307600922e+01 -5 3 0
722 444 1 4.1499999999999998e-01 4.3898203112496548e+00 5.1731753064969839e+00 2.6311435371376419e+01 -3 -2 0
5227 444 2 -8.2999999999999996e-01 1.1046944213714186e+01 7.6761986026361644e+00 2.7328913069276744e+01 0 4 0
3479 444 1 4.1499999999999998e-01 1.1972209965056000e+00 2.4205596361641835e+00 2.9305229708621724e+01 -5 3 0
2144 444 1 4.1499999999999998e-01 8.3804423398538006e+00 4.7826302235869784e+00 3.2332829691039890e+01 1 2 0
2020 444 2 -8.2999999999999996e-01 6.2628380865601363e+00 5.5135346106434522e+00 2.9042912110425284e+01 0 4 0
4397 444 1 4.1499999999999998e-01 9.2165019688978127e+00 3.9262555433579376e+00 2.8528213824031031e+01 5 -3 0
4396 444 2 -8.2999999999999996e-01 8.8348588562150248e+00 4.8013169186882658e+00 2.8458583238503820e+01 5 -3 0
2086 444 2 -8.2999999999999996e-01 3.2329651644190309e+00 4.9363864319741939e+00 2.9869695421421603e+01 0 4 0
2145 444 1 4.1499999999999998e-01 8.9925439996286869e+00 3.7385905841855060e+00 3.1423319876367582e+01 1 2 0
723 444 1 4.1499999999999998e-01 5.4679518310481203e+00 5.3026722457026123e+00 2.7366309019216747e+01 -3 -2 0
2087 444 1 4.1499999999999998e-01 4.1730984846040782e+00 4.7631971189140563e+00 2.9820837924950304e+01 0 4 0
2143 444 2 -8.2999999999999996e-01 8.1521750184628008e+00 4.0533547794628957e+00 3.1756389521474642e+01 1 2 0
846 444 1 4.1499999999999998e-01 5.5869871701846341e+00 4.5930850097686884e+00 3.2490400213666049e+01 1 0 0
2219 444 1 4.1499999999999998e-01 2.9828802407885047e-01 2.0728684005292011e+00 3.1524199829965632e+01 1 3 0
2194 444 2 -8.2999999999999996e-01 5.8960183810822295e+00 3.4047530189753599e+00 3.0393417946434717e+01 -2 1 0
2196 444 1 4.1499999999999998e-01 5.7416700688838151e+00 2.4748150995931431e+00 3.0227213124581439e+01 -2 1 0
2195 444 1 4.1499999999999998e-01 6.7340673736907544e+00 3.4301424200524617e+00 3.0855220170356159e+01 -2 1 0
4130 444 1 4.1499999999999998e-01 3.1248229172793787e+00 6.7123249473531663e+00 3.0047877692663636e+01 -2 -2 0
2021 444 1 4.1499999999999998e-01 6.1602340521236023e+00 4.7829588611539400e+00 2.9652800244782313e+01 0 4 0
2088 444 1 4.1499999999999998e-01 2.8348066410987593e+00 4.2538151415079355e+00 2.9329510911949072e+01 0 4 0
721 444 2 -8.2999999999999996e-01 5.3341169158628681e+00 5.0882802269564689e+00 2.6443077135560529e+01 -3 -2 0
2022 444 1 4.1499999999999998e-01 7.1239684933280882e+00 5.3771998490173578e+00 2.8647818171646030e+01 0 4 0
4205 444 1 4.1499999999999998e-01 7.4259000833358852e+00 7.0872697348968545e+00 2.6239561648408831e+01 2 -1 0
2938 444 2 -8.2999999999999996e-01 6.1525315255836155e+00 9.3208892966015078e-01 2.9287476437537908e+01 1 1 0
1871 444 1 4.1499999999999998e-01 3.2152102157231339e+00 8.8057826398851469e-01 3.1163792218355802e+01 1 3 0
5787 444 1 4.1499999999999998e-01 1.6694896443203471e+00 6.6732710263431194e+00 2.5127774294758375e+01 3 4 0
3748 444 2 -8.2999999999999996e-01 1.1068954838477053e+01 3.5582310159548012e+00 3.1059407894984378e+01 0 -4 0
5534 444 1 4.1499999999999998e-01 1.4666103515080240e+00 2.2431116697677769e-01 3.0394481361891668e+01 4 -2 0
375 444 1 4.1499999999999998e-01 3.6288775678689484e+00 7.2368258605029334e+00 2.6375268356042387e+01 0 0 0
5228 444 1 4.1499999999999998e-01 1.1357391102568053e+01 6.7707955040361067e+00 2.7338905251183743e+01 0 4 0
1174 444 2 -8.2999999999999996e-01 1.0867677120866913e+01 6.3029958073215901e+00 3.1371669617318972e+01 -2 1 0
3749 444 1 4.1499999999999998e-01 1.1036470433162666e+01 4.5094895384801683e+00 3.0957998582995355e+01 0 -4 0
373 444 2 -8.2999999999999996e-01 2.9896960302001103e+00 6.5760335390011591e+00 2.6641788921822247e+01 0 0 0
2321 444 1 4.1499999999999998e-01 1.5074008208259202e+00 7.3180512570189142e+00 2.9057217520811921e+01 0 1 0
4131 444 1 4.1499999999999998e-01 3.3504561045200045e+00 7.7569879669331003e+00 3.1120101633286072e+01 -2 -2 0
4129 444 2 -8.2999999999999996e-01 3.2421585444396976e+00 7.6538079151979757e+00 3.0174661302001983e+01 -2 -2 0