LAMMPS data file via write_data, version 11 Aug 2017, timestep = 500000

7156 atoms
4 atom types
4000 bonds
1 bond types
2000 angles
1 angle types

0.0000000000000000e+00 4.5679949999999998e+01 xlo xhi
0.0000000000000000e+00 4.6885919999999999e+01 ylo yhi
0.0000000000000000e+00 6.5000000000000000e+01 zlo zhi

Masses

1 1.0079
2 15.9994
3 18.9984
4 107.868

Bond Coeffs # harmonic

1 450 0.9572

Angle Coeffs # harmonic

1 500 104.52

Atoms # full

6005 444 4 0.0000000000000000e+00 1.6907200000000000e+00 0.0000000000000000e+00 0.0000000000000000e+00 0 0 0
6006 444 4 0.0000000000000000e+00 4.2285000000000004e+00 1.4651900000000000e+00 0.0000000000000000e+00 0 0 0
6007 444 4 1.3890000000000000e-02 1.6907700000000001e+00 0.0000000000000000e+00 7.1781499999999996e+00 0 0 0
6008 444 4 1.3890000000000000e-02 4.2285500000000003e+00 1.4651900000000000e+00 7.1781499999999996e+00 0 0 0
6009 444 4 0.0000000000000000e+00 2.5366499999999998e+00 1.4651900000000000e+00 2.3926400000000001e+00 0 0 0
6010 444 4 0.0000000000000000e+00 5.0744199999999999e+00 0.0000000000000000e+00 2.3926400000000001e+00 0 0 0
6011 444 4 0.0000000000000000e+00 8.4509000000000001e-01 1.4651900000000000e+00 4.7824200000000001e+00 0 0 0
6012 444 4 0.0000000000000000e+00 3.3828600000000000e+00 0.0000000000000000e+00 4.7824499999999999e+00 0 0 0
6013 444 4 0.0000000000000000e+00 1.6907200000000000e+00 2.9303699999999999e+00 0.0000000000000000e+00 0 0 0
6014 444 4 0.0000000000000000e+00 4.2285000000000004e+00 4.3955599999999997e+00 0.0000000000000000e+00 0 0 0
6015 444 4 1.3890000000000000e-02 1.6907700000000001e+00 2.9303699999999999e+00 7.1781899999999998e+00 0 0 0
6016 444 4 1.3890000000000000e-02 4.2285500000000003e+00 4.3955599999999997e+00 7.1781600000000001e+00 0 0 0
6017 444 4 0.0000000000000000e+00 2.5366499999999998e+00 4.3955599999999997e+00 2.3926400000000001e+00 0 0 0
6018 444 4 0.0000000000000000e+00 5.0744199999999999e+00 2.9303699999999999e+00 2.3926400000000001e+00 0 0 0
6019 444 4 0.0000000000000000e+00 8.4509000000000001e-01 4.3955599999999997e+00 4.7824499999999999e+00 0 0 0
6020 444 4 0.0000000000000000e+00 3.3828700000000000e+00 2.9303699999999999e+00 4.7824400000000002e+00 0 0 0
6021 444 4 0.0000000000000000e+00 1.6907200000000000e+00 5.8607399999999998e+00 0.0000000000000000e+00 0 0 0
6022 444 4 0.0000000000000000e+00 4.2285000000000004e+00 7.3259299999999996e+00 0.0000000000000000e+00 0 0 0
6023 444 4 1.3890000000000000e-02 1.6907700000000001e+00 5.8607399999999998e+00 7.1781499999999996e+00 0 0 0
6024 444 4 1.3890000000000000e-02 4.2285500000000003e+00 7.3259299999999996e+00 7.1781499999999996e+00 0 0 0
6025 444 4 0.0000000000000000e+00 2.5366499999999998e+00 7.3259299999999996e+00 2.3926400000000001e+00 0 0 0
6026 444 4 0.0000000000000000e+00 5.0744199999999999e+00 5.8607399999999998e+00 2.3926400000000001e+00 0 0 0
6027 444 4 0.0000000000000000e+00 8.4509000000000001e-01 7.3259299999999996e+00 4.7824200000000001e+00 0 0 0
6028 444 4 0.0000000000000000e+00 3.3828600000000000e+00 5.8607399999999998e+00 4.7824499999999999e+00 0 0 0
6133 444 4 0.0000000000000000e+00 6.7662699999999996e+00 0.0000000000000000e+00 0.0000000000000000e+00 0 0 0
6135 444 4 1.3890000000000000e-02 6.7663200000000003e+00 0.0000000000000000e+00 7.1781499999999996e+00 0 0 0
6137 444 4 0.0000000000000000e+00 7.6121999999999996e+00 1.4651900000000000e+00 2.3926400000000001e+00 0 0 0
6139 444 4 0.0000000000000000e+00 5.9206399999999997e+00 1.4651900000000000e+00 4.7824200000000001e+00 0 0 0
6141 444 4 0.0000000000000000e+00 6.7662699999999996e+00 2.9303699999999999e+00 0.0000000000000000e+00 0 0 0
6143 444 4 1.3890000000000000e-02 6.7663200000000003e+00 2.9303699999999999e+00 7.1781899999999998e+00 0 0 0
6145 444 4 0.0000000000000000e+00 7.6121999999999996e+00 4.3955599999999997e+00 2.3926400000000001e+00 0 0 0
6147 444 4 0.0000000000000000e+00 5.9206399999999997e+00 4.3955599999999997e+00 4.7824499999999999e+00 0 0 0
6149 444 4 0.0000000000000000e+00 6.7662699999999996e+00 5.8607399999999998e+00 0.0000000000000000e+00 0 0 0
6151 444 4 1.3890000000000000e-02 6.7663200000000003e+00 5.8607399999999998e+00 7.1781499999999996e+00 0 0 0
6153 444 4 0.0000000000000000e+00 7.6121999999999996e+00 7.3259299999999996e+00 2.3926400000000001e+00 0 0 0
6155 444 4 0.0000000000000000e+00 5.9206399999999997e+00 7.3259299999999996e+00 4.7824200000000001e+00 0 0 0
6134 444 4 0.0000000000000000e+00 9.3040500000000002e+00 1.4651900000000000e+00 0.0000000000000000e+00 0 0 0
6136 444 4 1.3890000000000000e-02 9.3041000000000000e+00 1.4651900000000000e+00 7.1781499999999996e+00 0 0 0
6138 444 4 0.0000000000000000e+00 1.0149970000000000e+01 0.0000000000000000e+00 2.3926400000000001e+00 0 0 0
6140 444 4 0.0000000000000000e+00 8.4584100000000007e+00 0.0000000000000000e+00 4.7824499999999999e+00 0 0 0
6142 444 4 0.0000000000000000e+00 9.3040500000000002e+00 4.3955599999999997e+00 0.0000000000000000e+00 0 0 0
6144 444 4 1.3890000000000000e-02 9.3041000000000000e+00 4.3955599999999997e+00 7.1781600000000001e+00 0 0 0
6146 444 4 0.0000000000000000e+00 1.0149970000000000e+01 2.9303699999999999e+00 2.3926400000000001e+00 0 0 0
6148 444 4 0.0000000000000000e+00 8.4584200000000003e+00 2.9303699999999999e+00 4.7824400000000002e+00 0 0 0
6150 444 4 0.0000000000000000e+00 9.3040500000000002e+00 7.3259299999999996e+00 0.0000000000000000e+00 0 0 0
6152 444 4 1.3890000000000000e-02 9.3041000000000000e+00 7.3259299999999996e+00 7.1781499999999996e+00 0 0 0
6154 444 4 0.0000000000000000e+00 1.0149970000000000e+01 5.8607399999999998e+00 2.3926400000000001e+00 0 0 0
6156 444 4 0.0000000000000000e+00 8.4584100000000007e+00 5.8607399999999998e+00 4.7824499999999999e+00 0 0 0
6267 444 4 0.0000000000000000e+00 1.0996190000000000e+01 1.4651900000000000e+00 4.7824200000000001e+00 0 0 0
6275 444 4 0.0000000000000000e+00 1.0996190000000000e+01 4.3955599999999997e+00 4.7824499999999999e+00 0 0 0
6283 444 4 0.0000000000000000e+00 1.0996190000000000e+01 7.3259299999999996e+00 4.7824200000000001e+00 0 0 0
1987 444 2 -8.2999999999999996e-01 6.3267908226648997e+00 1.2383158054923842e+00 1.0433004911049865e+01 1 2 0
4490 444 1 4.1499999999999998e-01 4.7391266813427047e+00 2.4526285395099081e+00 1.3914913845986661e+01 -1 0 0
4489 444 2 -8.2999999999999996e-01 5.0599682230172993e+00 2.2671013494747982e+00 1.4797451266408816e+01 -1 0 0
4491 444 1 4.1499999999999998e-01 4.4482334503297523e+00 2.7225519510293159e+00 1.5375878690908809e+01 -1 0 0
1426 444 2 -8.2999999999999996e-01 3.6087163526488153e+00 2.5062125135017519e+00 1.0684189046855924e+01 3 2 0
1427 444 1 4.1499999999999998e-01 2.7486098501419582e+00 2.8701100290970296e+00 1.0474361186708480e+01 3 2 0
1428 444 1 4.1499999999999998e-01 4.1555123693109000e+00 3.2710168898429277e+00 1.0863968934764863e+01 3 2 0
1671 444 1 4.1499999999999998e-01 8.6772849677698378e+00 8.1608766515045894e-01 9.8131483493447789e+00 -3 4 0
3870 444 1 4.1499999999999998e-01 5.1842713840350196e-01 4.6284289671209047e+00 1.5415593589809676e+01 -3 1 0
1669 444 2 -8.2999999999999996e-01 9.4024189325599323e+00 1.1041252052401920e+00 1.0367627622943294e+01 -3 4 0
952 444 2 -8.2999999999999996e-01 8.1639158674796732e+00 6.6124418218679333e+00 1.4663135396912514e+01 2 -1 0
2043 444 1 4.1499999999999998e-01 4.6999092675999963e+00 5.1692696880130997e+00 1.5311100656366527e+01 4 0 0
1989 444 1 4.1499999999999998e-01 5.9046488894374418e+00 2.0512681768365963e+00 1.0155270401329243e+01 1 2 0
2711 444 1 4.1499999999999998e-01 8.7967662292686004e+00 1.9385422624806528e+00 1.1966718105036771e+01 3 0 0
5173 444 2 -8.2999999999999996e-01 9.6773001196445509e+00 3.7128439319863554e-01 1.4449528117109976e+01 0 -1 0
609 444 1 4.1499999999999998e-01 1.1838979025030061e+00 4.5245883427372862e+00 1.1094270784340416e+01 0 -3 0
2041 444 2 -8.2999999999999996e-01 5.2799552242131060e+00 5.4530809077774709e+00 1.4604538488572041e+01 4 0 0
1988 444 1 4.1499999999999998e-01 6.9162138738599941e+00 1.5030785362730472e+00 1.1139201038942241e+01 1 2 0
2042 444 1 4.1499999999999998e-01 6.1614421371666914e+00 5.3611815932328639e+00 1.4966156095878670e+01 4 0 0
4980 444 1 4.1499999999999998e-01 5.7162790768142830e+00 4.6078542083381260e+00 1.0788123990082861e+01 3 -1 0
2710 444 2 -8.2999999999999996e-01 8.5114904111598850e+00 2.4801753046565618e+00 1.2702574087089030e+01 3 0 0
4978 444 2 -8.2999999999999996e-01 6.2949684400924681e+00 3.9477589587705602e+00 1.0406515795580466e+01 3 -1 0
4979 444 1 4.1499999999999998e-01 7.1733427493189668e+00 4.2111486823839988e+00 1.0680953981287884e+01 3 -1 0
5667 444 1 4.1499999999999998e-01 4.4810342613327130e+00 5.0549523364594515e+00 1.2943594515880601e+01 1 -2 0
5666 444 1 4.1499999999999998e-01 3.2222567746884221e+00 4.9059997033623546e+00 1.2115833981451852e+01 1 -2 0
5665 444 2 -8.2999999999999996e-01 4.1749473346068493e+00 4.8280313910195636e+00 1.2065500259881208e+01 1 -2 0
3257 444 1 4.1499999999999998e-01 1.0450595115631485e+01 6.2743628020890583e+00 1.0026080337691116e+01 0 1 0
4784 444 1 4.1499999999999998e-01 8.4948649971885022e+00 5.6942356317080804e+00 1.3045192675679807e+01 5 -1 0
2911 444 2 -8.2999999999999996e-01 2.2988691175872128e-01 1.7392610025068751e+00 1.0394826837516158e+01 1 1 0
4785 444 1 4.1499999999999998e-01 8.4405982242888680e+00 4.2927195517615679e+00 1.2475365516307292e+01 5 -1 0
530 444 1 4.1499999999999998e-01 1.0498667359810820e+00 4.9295252714187665e+00 1.3508208591996935e+01 -1 -1 0
2712 444 1 4.1499999999999998e-01 8.2417152667179483e+00 1.8519999703228236e+00 1.3372536118422275e+01 3 0 0
529 444 2 -8.2999999999999996e-01 1.5195869080244586e+00 5.3006423640551397e+00 1.2761302525702177e+01 -1 -1 0
4783 444 2 -8.2999999999999996e-01 8.5815741932312601e+00 5.2061495582967119e+00 1.2226360982761431e+01 5 -1 0
531 444 1 4.1499999999999998e-01 1.3266177369173227e+00 6.2374759914971349e+00 1.2797877470745874e+01 -1 -1 0
3868 444 2 -8.2999999999999996e-01 2.8378466699378824e-01 4.0955989499559706e+00 1.4655812280349609e+01 -3 1 0
4555 444 2 -8.2999999999999996e-01 1.0908883466211002e+01 6.4324927433848416e+00 1.4326220432245385e+01 -1 -5 0
2467 444 2 -8.2999999999999996e-01 7.7840287091586546e+00 6.9298105732574307e+00 1.0284447060773994e+01 -3 -3 0
2468 444 1 4.1499999999999998e-01 6.9091094700464799e+00 6.8399247125540992e+00 9.9067306934967156e+00 -3 -3 0
287 444 1 4.1499999999999998e-01 4.4429331738691857e+00 7.2336296385151257e+00 1.4278207642315337e+01 0 2 0
4556 444 1 4.1499999999999998e-01 1.1040019557795336e+01 5.7337758981118379e+00 1.4967181261404983e+01 -1 -5 0
2469 444 1 4.1499999999999998e-01 7.7922718028628255e+00 6.3166580446994072e+00 1.1019435641978909e+01 -3 -3 0
3256 444 2 -8.2999999999999996e-01 1.0331390745423038e+01 5.3654394237819991e+00 1.0301544426283895e+01 0 1 0
4895 444 1 4.1499999999999998e-01 1.0844865981498156e+01 3.6883561766397004e+00 1.0153435558693975e+01 0 -1 0
5303 444 1 4.1499999999999998e-01 3.6645662445951466e-01 6.5995695266103969e+00 1.5587429712256627e+01 3 1 0
3258 444 1 4.1499999999999998e-01 9.7965829075259663e+00 5.4228080058161652e+00 1.1093328034311490e+01 0 1 0
4557 444 1 4.1499999999999998e-01 9.9709512281828161e+00 6.6198250007504003e+00 1.4363935753539693e+01 -1 -5 0
953 444 1 4.1499999999999998e-01 8.1426290380780841e+00 6.3444117528999424e+00 1.5581796882786202e+01 2 -1 0
702 444 1 4.1499999999999998e-01 1.1022773727532575e+01 3.4211680086765792e+00 1.4762651846797729e+01 1 -2 0
954 444 1 4.1499999999999998e-01 7.6786609322170758e+00 7.4372652706718743e+00 1.4642488630808284e+01 2 -1 0
607 444 2 -8.2999999999999996e-01 1.1316559356587923e+00 4.2392489401526303e+00 1.0182084369523478e+01 0 -3 0
2913 444 1 4.1499999999999998e-01 7.1078334548563094e-01 2.5147468037924785e+00 1.0105703604631529e+01 1 1 0
4890 444 1 4.1499999999999998e-01 5.6750192276668576e+00 9.7138417996197723e-01 1.5655158524044491e+01 1 5 0
1978 444 2 -8.2999999999999996e-01 1.0521502483408357e+01 4.2472936098535525e+00 1.6102899322882536e+01 -4 2 0
5234 444 1 4.1499999999999998e-01 8.4630056192697829e+00 1.5941027142644650e+00 1.5630042893532103e+01 -2 2 0
2912 444 1 4.1499999999999998e-01 3.0234452297158598e-01 1.7539123061006434e+00 1.1349168033228276e+01 1 1 0
4896 444 1 4.1499999999999998e-01 1.0636449687175091e+01 2.1894808053762338e+00 1.0110652041483608e+01 0 -1 0
4751 444 1 4.1499999999999998e-01 4.6871377272985706e+00 6.3428425597992000e+00 1.0553171964973227e+01 -6 -1 0
1670 444 1 4.1499999999999998e-01 9.9889588593851499e+00 3.4872303628451851e-01 1.0407267279282467e+01 -3 4 0
2941 444 2 -8.2999999999999996e-01 2.7901410259186523e+00 3.9465457984294905e-02 1.1080508241825202e+01 2 2 0
4155 444 1 4.1499999999999998e-01 9.7738374058533262e-01 7.7811750372047799e+00 1.0679398724492698e+01 2 -2 0
701 444 1 4.1499999999999998e-01 1.1078185040752746e+01 2.0693836954043645e+00 1.4083310683594572e+01 1 -2 0
608 444 1 4.1499999999999998e-01 3.4224782000916770e-01 4.6615482067443637e+00 9.8433662103932100e+00 0 -3 0
4894 444 2 -8.2999999999999996e-01 1.1319518915457682e+01 2.8596722735042008e+00 1.0088478449777543e+01 0 -1 0
4750 444 2 -8.2999999999999996e-01 5.1804038060801698e+00 7.0395852272775601e+00 1.0120193554615138e+01 -6 -1 0
2942 444 1 4.1499999999999998e-01 2.9426033238321856e+00 9.7978249389224070e-01 1.0986747934328386e+01 2 2 0
3800 444 1 4.1499999999999998e-01 2.8535951065805509e-01 2.8236843733257504e+00 1.3646932344448626e+01 -3 0 0
1877 444 1 4.1499999999999998e-01 9.4747880626882939e+00 7.5216719869481494e+00 1.0083352082409258e+01 1 -2 0
3799 444 2 -8.2999999999999996e-01 2.1577965978377392e-01 2.0766221609224771e+00 1.3052550453938910e+01 -3 0 0
3801 444 1 4.1499999999999998e-01 2.9928067150408566e-01 1.3100919764360115e+00 1.3619729086239698e+01 -3 0 0
4752 444 1 4.1499999999999998e-01 5.0397309928647962e+00 7.8104764771220321e+00 1.0669893467640099e+01 -6 -1 0
5174 444 1 4.1499999999999998e-01 8.9840215066807882e+00 1.0320881281567296e-01 1.3846426076002121e+01 0 -1 0
5883 444 1 4.1499999999999998e-01 2.4297251702167699e-01 6.2328865313603954e-01 2.0455245589517236e+01 -4 7 0
2441 444 1 4.1499999999999998e-01 6.6848577816273220e+00 5.0712201046688354e-01 2.1336024529993058e+01 -2 4 0
5302 444 2 -8.2999999999999996e-01 9.0653983837275398e-01 6.2730771227517188e+00 1.6307113462316291e+01 3 1 0
5369 444 1 4.1499999999999998e-01 1.0872282587079292e+01 5.8947241448837158e+00 2.3901832005091205e+01 0 1 0
3981 444 1 4.1499999999999998e-01 1.8865323698687335e+00 2.6145771880644229e+00 1.9878693303665528e+01 -1 3 0
5235 444 1 4.1499999999999998e-01 7.8099521789628996e+00 1.4891145987215513e+00 1.6991804221444394e+01 -2 2 0
4223 444 1 4.1499999999999998e-01 7.1345876397659698e+00 3.3830613523750355e+00 1.6985923575779154e+01 2 1 0
5233 444 2 -8.2999999999999996e-01 8.3748189788739271e+00 2.0542403100998832e+00 1.6464745690422848e+01 -2 2 0
895 444 2 -8.2999999999999996e-01 1.2341803681069203e+00 6.8842446934898724e+00 2.3537200419926680e+01 -3 -2 0
3456 444 1 4.1499999999999998e-01 1.0648512056714868e+01 1.1349492711060210e+00 1.6906051421781356e+01 2 2 0
896 444 1 4.1499999999999998e-01 2.1536245505815814e+00 6.6184674126104301e+00 2.3522467995712670e+01 -3 -2 0
2341 444 2 -8.2999999999999996e-01 5.4290869665492947e+00 9.3794841701646114e-01 1.9013387145599300e+01 3 1 0
1231 444 2 -8.2999999999999996e-01 4.0424647539981873e+00 3.7646641426004304e+00 1.6727972899480257e+01 -2 6 0
3287 444 1 4.1499999999999998e-01 1.0278955275235468e+01 1.7669923608567113e+00 2.1127982911290541e+01 0 3 0
1478 444 1 4.1499999999999998e-01 6.2907095016747254e+00 3.6129834351621817e+00 1.9652599772575762e+01 4 -1 0
3062 444 1 4.1499999999999998e-01 1.0911094573977835e+00 5.1491812080068078e+00 1.7636732035760961e+01 1 -1 0
4662 444 1 4.1499999999999998e-01 9.0908519856349059e+00 5.1260400066666341e+00 1.9508000157442392e+01 2 1 0
1233 444 1 4.1499999999999998e-01 4.9248128004618668e+00 3.8887315017664119e+00 1.7077688612989643e+01 -2 6 0
2744 444 1 4.1499999999999998e-01 2.3888629461175603e+00 2.7995908634657747e+00 2.2244644270606226e+01 -2 0 0
4222 444 2 -8.2999999999999996e-01 6.5674024802163187e+00 3.8830711057657195e+00 1.7572884991912105e+01 2 1 0
1232 444 1 4.1499999999999998e-01 3.4943815380141197e+00 3.6312041784070104e+00 1.7501293706224150e+01 -2 6 0
4224 444 1 4.1499999999999998e-01 7.0745724027706736e+00 4.6660196756747512e+00 1.7787367020327423e+01 2 1 0
3288 444 1 4.1499999999999998e-01 9.2948045998453548e+00 1.2582837115181749e+00 2.0096208658719615e+01 0 3 0
1099 444 2 -8.2999999999999996e-01 4.1994500131250554e+00 2.9308650134570668e+00 2.2603590317306534e+01 2 0 0
1979 444 1 4.1499999999999998e-01 1.1009749891376496e+01 4.6170291967665893e+00 1.6838523501142841e+01 -4 2 0
3447 444 1 4.1499999999999998e-01 7.4778228012792782e+00 3.6591160457748169e+00 2.1882154706685963e+01 0 -6 0
3445 444 2 -8.2999999999999996e-01 7.8157597215804993e+00 4.4806482710083104e+00 2.2238687504738483e+01 0 -6 0
3446 444 1 4.1499999999999998e-01 8.4068318140550371e+00 4.8107906856337186e+00 2.1562025030010801e+01 0 -6 0
1980 444 1 4.1499999999999998e-01 9.9555599674679112e+00 3.5848210066511146e+00 1.6499221449933597e+01 -4 2 0
1100 444 1 4.1499999999999998e-01 4.8386087686145780e+00 3.0414661450701121e+00 2.1899690234094706e+01 2 0 0
3286 444 2 -8.2999999999999996e-01 1.0045571088222459e+01 1.8424346637302131e+00 2.0202741263538314e+01 0 3 0
5065 444 2 -8.2999999999999996e-01 6.2714789378052407e+00 6.9961573979343177e+00 2.1227357815344902e+01 -5 0 0
3063 444 1 4.1499999999999998e-01 1.4923746935103721e+00 3.8095761883540837e+00 1.8216681497037840e+01 1 -1 0
1866 444 1 4.1499999999999998e-01 2.2532911146409962e+00 5.0088914921146479e+00 2.1641790289237107e+01 1 -2 0
3956 444 1 4.1499999999999998e-01 1.0933622852986474e+01 5.7634462470299015e+00 2.0597572186927632e+01 -1 3 0
3124 444 2 -8.2999999999999996e-01 2.4892402242218797e-01 4.3766289943735472e+00 2.3571129889335342e+01 -3 -1 0
3061 444 2 -8.2999999999999996e-01 8.1876104916735837e-01 4.4873486601726835e+00 1.8272371197064878e+01 1 -1 0
5067 444 1 4.1499999999999998e-01 5.5359043893462667e+00 6.7252411194126829e+00 2.0678024916243331e+01 -5 0 0
2012 444 1 4.1499999999999998e-01 7.4049589544537362e+00 3.9304064512695898e+00 2.3865719824178147e+01 4 0 0
1101 444 1 4.1499999999999998e-01 4.1825521826901246e+00 1.9877655168786110e+00 2.2766408144527158e+01 2 0 0
4660 444 2 -8.2999999999999996e-01 8.2292909324615291e+00 5.2549757244018727e+00 1.9111362366426338e+01 2 1 0
5066 444 1 4.1499999999999998e-01 6.3290753148920667e+00 6.3196226658873584e+00 2.1902054658966989e+01 -5 0 0
4661 444 1 4.1499999999999998e-01 8.1818338785704157e+00 6.1957148175731502e+00 1.8941098244866417e+01 2 1 0
2743 444 2 -8.2999999999999996e-01 1.6135939494900817e+00 2.4495197860257307e+00 2.1805735847727508e+01 -2 0 0
2745 444 1 4.1499999999999998e-01 8.7578530737523475e-01 2.8396494693187551e+00 2.2274424762749632e+01 -2 0 0
1477 444 2 -8.2999999999999996e-01 5.8660104384853211e+00 3.1789787561481613e+00 2.0392533892591025e+01 4 -1 0
1865 444 1 4.1499999999999998e-01 1.8478317292312467e+00 5.1292972569485444e+00 2.0188173987250181e+01 1 -2 0
1864 444 2 -8.2999999999999996e-01 2.2152376402129952e+00 5.6313572041120121e+00 2.0915622090823959e+01 1 -2 0
3955 444 2 -8.2999999999999996e-01 1.0254326559206731e+01 5.1022989704775972e+00 2.0730515258475311e+01 -1 3 0
3957 444 1 4.1499999999999998e-01 1.0660387772798055e+01 4.4531426715781564e+00 2.1304921359182238e+01 -1 3 0
5304 444 1 4.1499999999999998e-01 1.3902634630768074e+00 7.0408796937155760e+00 1.6611617222333734e+01 3 1 0
3980 444 1 4.1499999999999998e-01 3.0190795716569863e+00 1.7970997481866073e+00 1.9294773208002240e+01 -1 3 0
3979 444 2 -8.2999999999999996e-01 2.5630866725847237e+00 2.6335589081618163e+00 1.9201828126658924e+01 -1 3 0
1479 444 1 4.1499999999999998e-01 5.7648160613045611e+00 2.2695768333037973e+00 2.0111500611274352e+01 4 -1 0
2120 444 1 4.1499999999999998e-01 7.3036901789688491e+00 1.4876243693145152e-01 1.9263012365521561e+01 0 1 0
5498 444 1 4.1499999999999998e-01 1.6477018041814364e+00 7.1804306648371652e+00 2.0494360413120834e+01 -4 3 0
5368 444 2 -8.2999999999999996e-01 1.0237294939105757e+01 6.5894067231649762e+00 2.3727364860696202e+01 0 1 0
2440 444 2 -8.2999999999999996e-01 6.3839581380121642e+00 1.8526477509668629e-01 2.2185789145569636e+01 -2 4 0
5499 444 1 4.1499999999999998e-01 2.0693758878394428e-01 7.6168288299112508e+00 2.0654517316399673e+01 -4 3 0
5882 444 1 4.1499999999999998e-01 1.0008306134627496e+00 5.1157533127853194e-01 2.1761027502966137e+01 -4 7 0
5534 444 1 4.1499999999999998e-01 8.3601241742225323e+00 7.6887413828500666e+00 2.4049894702375720e+01 -1 1 0
5370 444 1 4.1499999999999998e-01 1.0668252481049810e+01 7.3895014492824300e+00 2.4027958199363930e+01 0 1 0
897 444 1 4.1499999999999998e-01 7.4602127753478498e-01 6.0632780132893345e+00 2.3474370025131542e+01 -3 -2 0
3398 444 1 4.1499999999999998e-01 9.8846772868315593e+00 7.7183353556377314e+00 2.1664173238282032e+01 3 2 0
392 444 1 4.1499999999999998e-01 4.3224676397212551e+00 4.3736377750270288e+00 2.3736228859662177e+01 0 0 0
3455 444 1 4.1499999999999998e-01 1.0977045950900635e+01 2.6435782007988667e-01 1.8100216889573463e+01 2 2 0
2342 444 1 4.1499999999999998e-01 4.5156357325766416e+00 6.5635317690574002e-01 1.9063813681667074e+01 3 1 0
2343 444 1 4.1499999999999998e-01 5.6010145523887509e+00 1.0281607241775126e+00 1.8076085403933185e+01 3 1 0
2119 444 2 -8.2999999999999996e-01 8.0443130762195025e+00 1.5547433865688509e-01 1.9869366376377435e+01 0 1 0
4888 444 2 -8.2999999999999996e-01 5.9472243730714789e+00 5.6527131015659049e-01 1.6478086441040176e+01 1 5 0
5215 444 2 -8.2999999999999996e-01 1.1280356838515361e+01 1.2471757265340246e+00 2.2615587197474991e+01 1 -4 0
3454 444 2 -8.2999999999999996e-01 1.1045086081382181e+01 2.9746506935855960e-01 1.7146012293073369e+01 2 2 0
4961 444 1 4.1499999999999998e-01 7.2623892924941078e+00 7.4701793060150168e+00 1.9951391514031830e+01 3 2 0
766 444 2 -8.2999999999999996e-01 7.3576362640745367e+00 8.1538782547618804e-01 2.6645443091273179e+01 -2 2 0
4920 444 1 4.1499999999999998e-01 1.0956244920613772e+01 3.0809993431865861e+00 2.4744964001402121e+01 -6 1 0
4919 444 1 4.1499999999999998e-01 1.0593116982322341e+01 2.1932329675663156e+00 2.5916247349967712e+01 -6 1 0
1970 444 1 4.1499999999999998e-01 8.7860002892297224e+00 1.7228271699998915e-01 3.1899528623992659e+01 3 2 0
4918 444 2 -8.2999999999999996e-01 1.0341555514641934e+01 3.0043987958126701e+00 2.5474705110679210e+01 -6 1 0
20 444 1 4.1499999999999998e-01 1.0417693881672966e+01 6.5383655008222719e-01 2.8221568993760986e+01 -1 1 0
3731 444 1 4.1499999999999998e-01 1.1153121439874081e+01 6.6647413406244240e+00 3.0448143028740702e+01 2 -1 0
1969 444 2 -8.2999999999999996e-01 8.0495709453259465e+00 3.9183778373935235e-01 3.1328827135745538e+01 3 2 0
4806 444 1 4.1499999999999998e-01 5.8263430263086124e-01 3.9527492384964766e+00 2.6787394385125825e+01 0 4 0
2013 444 1 4.1499999999999998e-01 8.1227452363424391e+00 3.0912263050516167e+00 2.4901313923308564e+01 4 0 0
768 444 1 4.1499999999999998e-01 8.1176497166498987e+00 3.5599483322278236e-01 2.6288274404500761e+01 -2 2 0
2524 444 2 -8.2999999999999996e-01 5.4519852682775376e+00 5.0717622817313700e-02 2.5038913370813635e+01 4 0 0
1547 444 1 4.1499999999999998e-01 3.2503685125083753e-02 1.5250100999626750e+00 2.5960548108565131e+01 4 3 0
767 444 1 4.1499999999999998e-01 6.6742051438907266e+00 6.9773766633540013e-01 2.5985661157274659e+01 -2 2 0
4357 444 2 -8.2999999999999996e-01 7.9223188240797802e+00 6.3284335701646341e+00 2.9351126375455575e+01 -2 -1 0
4969 444 2 -8.2999999999999996e-01 8.9691296749047904e+00 4.3973214676761154e+00 2.7309689746450395e+01 -3 3 0
2011 444 2 -8.2999999999999996e-01 7.2549752818183215e+00 3.4128465583758461e+00 2.4656839153322924e+01 4 0 0
4971 444 1 4.1499999999999998e-01 9.4677728016713356e+00 3.9152118186283333e+00 2.6650024092800063e+01 -3 3 0
1713 444 1 4.1499999999999998e-01 9.5479768463301866e+00 3.8246473459953139e+00 3.1945961086845042e+01 1 3 0
1724 444 1 4.1499999999999998e-01 1.0165150305278130e+01 2.2648576580586588e+00 3.0174324845357440e+01 4 3 0
1907 444 1 4.1499999999999998e-01 1.0552421637245388e+01 4.9730289016126283e+00 2.8114571128988629e+01 4 3 0
393 444 1 4.1499999999999998e-01 4.3868802826173097e+00 4.5743150238626642e+00 2.5235386896171470e+01 0 0 0
1253 444 1 4.1499999999999998e-01 5.8295559323012860e+00 2.8867570875252659e+00 2.5398550045900869e+01 -1 -1 0
1254 444 1 4.1499999999999998e-01 4.9756891011766484e+00 1.6562951308750040e+00 2.5619389298884283e+01 -1 -1 0
1252 444 2 -8.2999999999999996e-01 5.0026478620542330e+00 2.5986500778729353e+00 2.5785136765486762e+01 -1 -1 0
391 444 2 -8.2999999999999996e-01 4.3686415072529163e+00 5.0544348590497226e+00 2.4407507593176270e+01 0 0 0
4060 444 2 -8.2999999999999996e-01 4.6516018296234884e+00 5.8248039161301586e+00 3.1181309614786336e+01 0 1 0
1723 444 2 -8.2999999999999996e-01 9.6181088590846446e+00 2.9763764488807349e+00 3.0507068728483400e+01 4 3 0
2126 444 1 4.1499999999999998e-01 5.1534522237522626e+00 6.6691766954931699e+00 2.5287320765622255e+01 -2 0 0
1674 444 1 4.1499999999999998e-01 1.5540007371595972e+00 3.9445276801326346e+00 3.1483253802775575e+01 0 -4 0
3338 444 1 4.1499999999999998e-01 1.2683608341973278e+00 2.9849091753449863e-01 3.2220780166498571e+01 1 2 0
2125 444 2 -8.2999999999999996e-01 5.7545930879014193e+00 7.3028315903414072e+00 2.5678912100772052e+01 -2 0 0
450 444 1 4.1499999999999998e-01 2.1105872750318952e+00 5.3519274652616158e+00 3.0143210004460869e+01 0 0 0
5042 444 1 4.1499999999999998e-01 7.5619153734459736e+00 3.4476010610680392e+00 2.8140626896893089e+01 -3 -1 0
5041 444 2 -8.2999999999999996e-01 7.3991526099796658e+00 2.6446720346229853e+00 2.8635647214224218e+01 -3 -1 0
4492 444 2 -8.2999999999999996e-01 7.1236633143409618e+00 4.2778655825849627e+00 3.1054533963477965e+01 -3 -3 0
4493 444 1 4.1499999999999998e-01 6.7587888984503595e+00 3.4001775418721509e+00 3.0941560996597612e+01 -3 -3 0
448 444 2 -8.2999999999999996e-01 1.7300706236524235e+00 5.9848392319371113e+00 2.9534225908304460e+01 0 0 0
3857 444 1 4.1499999999999998e-01 3.9639266756533780e+00 3.1175094351989689e+00 2.8312656368601854e+01 3 -1 0
2508 444 1 4.1499999999999998e-01 2.8302506514869687e+00 6.5569769122083876e+00 2.8318607426618058e+01 1 0 0
2506 444 2 -8.2999999999999996e-01 3.2599039120000448e+00 6.4971173901018080e+00 2.7465350844734552e+01 1 0 0
3856 444 2 -8.2999999999999996e-01 4.1501983866259868e+00 3.9653579898677762e+00 2.7909310484281605e+01 3 -1 0
2507 444 1 4.1499999999999998e-01 3.5729298375511416e+00 5.5938342309570848e+00 2.7417120337898918e+01 1 0 0
3858 444 1 4.1499999999999998e-01 4.7671475763103759e+00 3.7657860085980515e+00 2.7205195788853125e+01 3 -1 0
1462 444 2 -8.2999999999999996e-01 5.6024608431839180e+00 2.0447047963643943e+00 3.0655064202383929e+01 -1 0 0
1115 444 1 4.1499999999999998e-01 4.9141853346650617e+00 7.3790274298541032e+00 2.8106931665519742e+01 1 3 0
4062 444 1 4.1499999999999998e-01 5.2999740587286199e+00 5.4453554138406766e+00 3.0588128108143906e+01 0 1 0
5043 444 1 4.1499999999999998e-01 7.5604411713321076e+00 1.9394473655502784e+00 2.8008848997704337e+01 -3 -1 0
4061 444 1 4.1499999999999998e-01 3.8493312045697108e+00 5.3328970087881027e+00 3.1006319118697558e+01 0 1 0
812 444 1 4.1499999999999998e-01 1.0989178852526596e+01 4.8166504937887042e+00 3.1651959109530573e+01 -2 1 0
1463 444 1 4.1499999999999998e-01 4.9097920059449081e+00 1.4039896534488012e+00 3.0494047436488145e+01 -1 0 0
1725 444 1 4.1499999999999998e-01 8.9261864675045128e+00 3.0732341811986528e+00 2.9852779925696954e+01 4 3 0
4494 444 1 4.1499999999999998e-01 7.3715182493393892e+00 4.3176597175170581e+00 3.1978231058008308e+01 -3 -3 0
4526 444 1 4.1499999999999998e-01 3.7038094991503736e+00 5.1764447501242850e-01 3.2226937427010618e+01 0 -4 0
1464 444 1 4.1499999999999998e-01 6.1208053311934414e+00 2.0450877747995975e+00 2.9850358424153196e+01 -1 0 0
19 444 2 -8.2999999999999996e-01 1.0397337197648003e+01 7.2034102219051932e-01 2.9176239133283492e+01 -1 1 0
4970 444 1 4.1499999999999998e-01 8.4087985621983279e+00 4.9860689998650018e+00 2.6804083733494281e+01 -3 3 0
4359 444 1 4.1499999999999998e-01 8.8540235512080550e+00 6.4613075915892386e+00 2.9525776753800244e+01 -2 -1 0
1672 444 2 -8.2999999999999996e-01 2.4876255334174009e+00 4.1297969043984928e+00 3.1382001926701175e+01 0 -4 0
1673 444 1 4.1499999999999998e-01 2.8950653010124321e+00 3.7389138362474159e+00 3.2154941197664080e+01 0 -4 0
1114 444 2 -8.2999999999999996e-01 5.6404501220865457e+00 7.6652569261153927e+00 2.8660867103307545e+01 1 3 0
4358 444 1 4.1499999999999998e-01 7.6690729855381328e+00 5.6113366150446593e+00 2.9932393422743946e+01 -2 -1 0
1971 444 1 4.1499999999999998e-01 8.3780375932902214e+00 1.1000130675353079e+00 3.0774905046029438e+01 3 2 0
760 444 2 -8.2999999999999996e-01 1.0354635157501340e+01 7.6438941518784169e+00 2.7677358384709191e+01 -2 -1 0
4805 444 1 4.1499999999999998e-01 1.7296656621383903e+00 2.9967078075115317e+00 2.6537996954444505e+01 0 4 0
449 444 1 4.1499999999999998e-01 9.5334788860380781e-01 5.5464544929483131e+00 2.9186731342309553e+01 0 0 0
3730 444 2 -8.2999999999999996e-01 1.0703022749553986e+01 7.4850664915691674e+00 3.0246376675699157e+01 2 -1 0
4804 444 2 -8.2999999999999996e-01 9.8529358090850216e-01 3.4151027877367022e+00 2.6105460438286258e+01 0 4 0
762 444 1 4.1499999999999998e-01 1.0308504372864439e+01 7.6493583676793113e+00 2.8633431191693440e+01 -2 -1 0
5200 444 2 -8.2999999999999996e-01 1.0872199212010244e+01 3.3725078771101968e-01 2.6326790358307903e+01 -2 0 0
3126 444 1 4.1499999999999998e-01 6.2356904545716885e-01 4.0284601613980664e+00 2.4380235939679824e+01 -3 -1 0
1116 444 1 4.1499999999999998e-01 6.3766260721870669e+00 7.1142183470942397e+00 2.8395096247045096e+01 1 3 0
4380 444 1 4.1499999999999998e-01 2.6765078521147592e+00 7.4987095236539458e+00 2.6071103506178925e+01 -1 0 0