LAMMPS data file via write_data, version 11 Aug 2017, timestep = 500000

7153 atoms
4 atom types
4000 bonds
1 bond types
2000 angles
1 angle types

0.0000000000000000e+00 4.5679949999999998e+01 xlo xhi
0.0000000000000000e+00 4.6885919999999999e+01 ylo yhi
0.0000000000000000e+00 6.5000000000000000e+01 zlo zhi

Masses

1 1.0079
2 15.9994
3 18.9984
4 107.868

Bond Coeffs # harmonic

1 450 0.9572

Angle Coeffs # harmonic

1 55 104.52

Atoms # full

6002 444 4 0.0000000000000000e+00 1.6907200000000000e+00 0.0000000000000000e+00 0.0000000000000000e+00 0 0 0
6003 444 4 0.0000000000000000e+00 4.2285000000000004e+00 1.4651900000000000e+00 0.0000000000000000e+00 0 0 0
6004 444 4 3.4700000000000000e-03 1.6907700000000001e+00 0.0000000000000000e+00 7.1781499999999996e+00 0 0 0
6005 444 4 3.4700000000000000e-03 4.2285500000000003e+00 1.4651900000000000e+00 7.1781499999999996e+00 0 0 0
6006 444 4 0.0000000000000000e+00 2.5366499999999998e+00 1.4651900000000000e+00 2.3926400000000001e+00 0 0 0
6007 444 4 0.0000000000000000e+00 5.0744199999999999e+00 0.0000000000000000e+00 2.3926400000000001e+00 0 0 0
6008 444 4 0.0000000000000000e+00 8.4509000000000001e-01 1.4651900000000000e+00 4.7824200000000001e+00 0 0 0
6009 444 4 0.0000000000000000e+00 3.3828600000000000e+00 0.0000000000000000e+00 4.7824499999999999e+00 0 0 0
6010 444 4 0.0000000000000000e+00 1.6907200000000000e+00 2.9303699999999999e+00 0.0000000000000000e+00 0 0 0
6011 444 4 0.0000000000000000e+00 4.2285000000000004e+00 4.3955599999999997e+00 0.0000000000000000e+00 0 0 0
6012 444 4 3.4700000000000000e-03 1.6907700000000001e+00 2.9303699999999999e+00 7.1781899999999998e+00 0 0 0
6013 444 4 3.4700000000000000e-03 4.2285500000000003e+00 4.3955599999999997e+00 7.1781600000000001e+00 0 0 0
6014 444 4 0.0000000000000000e+00 2.5366499999999998e+00 4.3955599999999997e+00 2.3926400000000001e+00 0 0 0
6015 444 4 0.0000000000000000e+00 5.0744199999999999e+00 2.9303699999999999e+00 2.3926400000000001e+00 0 0 0
6016 444 4 0.0000000000000000e+00 8.4509000000000001e-01 4.3955599999999997e+00 4.7824499999999999e+00 0 0 0
6017 444 4 0.0000000000000000e+00 3.3828700000000000e+00 2.9303699999999999e+00 4.7824400000000002e+00 0 0 0
6018 444 4 0.0000000000000000e+00 1.6907200000000000e+00 5.8607399999999998e+00 0.0000000000000000e+00 0 0 0
6019 444 4 0.0000000000000000e+00 4.2285000000000004e+00 7.3259299999999996e+00 0.0000000000000000e+00 0 0 0
6020 444 4 3.4700000000000000e-03 1.6907700000000001e+00 5.8607399999999998e+00 7.1781499999999996e+00 0 0 0
6021 444 4 3.4700000000000000e-03 4.2285500000000003e+00 7.3259299999999996e+00 7.1781499999999996e+00 0 0 0
6022 444 4 0.0000000000000000e+00 2.5366499999999998e+00 7.3259299999999996e+00 2.3926400000000001e+00 0 0 0
6023 444 4 0.0000000000000000e+00 5.0744199999999999e+00 5.8607399999999998e+00 2.3926400000000001e+00 0 0 0
6024 444 4 0.0000000000000000e+00 8.4509000000000001e-01 7.3259299999999996e+00 4.7824200000000001e+00 0 0 0
6025 444 4 0.0000000000000000e+00 3.3828600000000000e+00 5.8607399999999998e+00 4.7824499999999999e+00 0 0 0
6130 444 4 0.0000000000000000e+00 6.7662699999999996e+00 0.0000000000000000e+00 0.0000000000000000e+00 0 0 0
6132 444 4 3.4700000000000000e-03 6.7663200000000003e+00 0.0000000000000000e+00 7.1781499999999996e+00 0 0 0
6134 444 4 0.0000000000000000e+00 7.6121999999999996e+00 1.4651900000000000e+00 2.3926400000000001e+00 0 0 0
6136 444 4 0.0000000000000000e+00 5.9206399999999997e+00 1.4651900000000000e+00 4.7824200000000001e+00 0 0 0
6138 444 4 0.0000000000000000e+00 6.7662699999999996e+00 2.9303699999999999e+00 0.0000000000000000e+00 0 0 0
6140 444 4 3.4700000000000000e-03 6.7663200000000003e+00 2.9303699999999999e+00 7.1781899999999998e+00 0 0 0
6142 444 4 0.0000000000000000e+00 7.6121999999999996e+00 4.3955599999999997e+00 2.3926400000000001e+00 0 0 0
6144 444 4 0.0000000000000000e+00 5.9206399999999997e+00 4.3955599999999997e+00 4.7824499999999999e+00 0 0 0
6146 444 4 0.0000000000000000e+00 6.7662699999999996e+00 5.8607399999999998e+00 0.0000000000000000e+00 0 0 0
6148 444 4 3.4700000000000000e-03 6.7663200000000003e+00 5.8607399999999998e+00 7.1781499999999996e+00 0 0 0
6150 444 4 0.0000000000000000e+00 7.6121999999999996e+00 7.3259299999999996e+00 2.3926400000000001e+00 0 0 0
6152 444 4 0.0000000000000000e+00 5.9206399999999997e+00 7.3259299999999996e+00 4.7824200000000001e+00 0 0 0
6131 444 4 0.0000000000000000e+00 9.3040500000000002e+00 1.4651900000000000e+00 0.0000000000000000e+00 0 0 0
6133 444 4 3.4700000000000000e-03 9.3041000000000000e+00 1.4651900000000000e+00 7.1781499999999996e+00 0 0 0
6135 444 4 0.0000000000000000e+00 1.0149970000000000e+01 0.0000000000000000e+00 2.3926400000000001e+00 0 0 0
6137 444 4 0.0000000000000000e+00 8.4584100000000007e+00 0.0000000000000000e+00 4.7824499999999999e+00 0 0 0
6139 444 4 0.0000000000000000e+00 9.3040500000000002e+00 4.3955599999999997e+00 0.0000000000000000e+00 0 0 0
6141 444 4 3.4700000000000000e-03 9.3041000000000000e+00 4.3955599999999997e+00 7.1781600000000001e+00 0 0 0
6143 444 4 0.0000000000000000e+00 1.0149970000000000e+01 2.9303699999999999e+00 2.3926400000000001e+00 0 0 0
6145 444 4 0.0000000000000000e+00 8.4584200000000003e+00 2.9303699999999999e+00 4.7824400000000002e+00 0 0 0
6147 444 4 0.0000000000000000e+00 9.3040500000000002e+00 7.3259299999999996e+00 0.0000000000000000e+00 0 0 0
6149 444 4 3.4700000000000000e-03 9.3041000000000000e+00 7.3259299999999996e+00 7.1781499999999996e+00 0 0 0
6151 444 4 0.0000000000000000e+00 1.0149970000000000e+01 5.8607399999999998e+00 2.3926400000000001e+00 0 0 0
6153 444 4 0.0000000000000000e+00 8.4584100000000007e+00 5.8607399999999998e+00 4.7824499999999999e+00 0 0 0
6264 444 4 0.0000000000000000e+00 1.0996190000000000e+01 1.4651900000000000e+00 4.7824200000000001e+00 0 0 0
6272 444 4 0.0000000000000000e+00 1.0996190000000000e+01 4.3955599999999997e+00 4.7824499999999999e+00 0 0 0
6280 444 4 0.0000000000000000e+00 1.0996190000000000e+01 7.3259299999999996e+00 4.7824200000000001e+00 0 0 0
4445 444 1 4.1499999999999998e-01 7.0103416778944156e+00 2.4903088923723278e+00 1.2027258301477088e+01 -2 0 0
4444 444 2 -8.2999999999999996e-01 7.5049351095695744e+00 1.6735789620366326e+00 1.1959716429431952e+01 -2 0 0
4446 444 1 4.1499999999999998e-01 7.0034663951740823e+00 1.1395917580891155e+00 1.1343583453776398e+01 -2 0 0
5152 444 2 -8.2999999999999996e-01 1.8276407512305601e+00 6.3677887116863507e+00 1.0017860158065227e+01 1 -2 0
3454 444 2 -8.2999999999999996e-01 3.0601685508072753e+00 3.3512859722446851e+00 1.1087081577567277e+01 6 1 0
3456 444 1 4.1499999999999998e-01 2.1252735845828217e+00 3.4629792879203225e+00 1.0914663864192802e+01 6 1 0
1260 444 1 4.1499999999999998e-01 4.4243087027430468e+00 6.5118156426564937e+00 9.8658378760203203e+00 0 -3 0
3455 444 1 4.1499999999999998e-01 3.4851545173151028e+00 4.0169447598206851e+00 1.0546233033771147e+01 6 1 0
1258 444 2 -8.2999999999999996e-01 4.5205415760533310e+00 5.6074957664146119e+00 1.0164463219989052e+01 0 -3 0
1259 444 1 4.1499999999999998e-01 5.3931083993177120e+00 5.3484938757264677e+00 9.8681908524502848e+00 0 -3 0
711 444 1 4.1499999999999998e-01 2.3516284807701431e+00 2.2784535382966298e+00 1.5088580023746038e+01 -2 0 0
130 444 2 -8.2999999999999996e-01 6.9481740416186435e+00 4.1848040800727890e+00 1.0074610404571519e+01 -5 2 0
132 444 1 4.1499999999999998e-01 7.6151287763872846e+00 3.7966064928650094e+00 9.5083014111394650e+00 -5 2 0
2527 444 2 -8.2999999999999996e-01 1.0234385897200502e+01 2.2716028014368552e+00 1.0458541231193763e+01 1 0 0
2528 444 1 4.1499999999999998e-01 9.7677513897625552e+00 2.9335422402461653e+00 1.0968757310396466e+01 1 0 0
131 444 1 4.1499999999999998e-01 7.4313413123187839e+00 4.7968900648375978e+00 1.0629706848030928e+01 -5 2 0
5153 444 1 4.1499999999999998e-01 2.7451673393471046e+00 6.4120352033448293e+00 1.0286968670661834e+01 1 -2 0
5210 444 1 4.1499999999999998e-01 8.9074653968474475e+00 2.1801584549862425e+00 1.3489944401271382e+01 2 0 0
1900 444 2 -8.2999999999999996e-01 3.3127066392843760e+00 1.0456720761363847e+00 9.9224083775570833e+00 1 2 0
2161 444 2 -8.2999999999999996e-01 5.5708292439579321e-01 4.0014224163177907e+00 1.0453281199746582e+01 1 2 0
1112 444 1 4.1499999999999998e-01 7.3789872677275667e+00 2.1387769433406847e-01 1.3601603563407858e+01 -1 4 0
991 444 2 -8.2999999999999996e-01 6.2094799207594853e-01 4.2976477110556397e+00 1.4181102439260577e+01 3 3 0
5154 444 1 4.1499999999999998e-01 1.7206806882122523e+00 5.4806040283961419e+00 9.6747934107497091e+00 1 -2 0
2529 444 1 4.1499999999999998e-01 1.1084205450376668e+01 2.6694311243848428e+00 1.0269408108121089e+01 1 0 0
4555 444 2 -8.2999999999999996e-01 4.4399506486674358e+00 6.0628243114143165e+00 1.2964020395559704e+01 2 2 0
4557 444 1 4.1499999999999998e-01 4.8535302543707548e+00 5.6151466833672909e+00 1.2225936068831270e+01 2 2 0
4315 444 2 -8.2999999999999996e-01 5.8383788386218631e+00 1.8745499767948143e-01 1.0241879129776764e+01 0 0 0
3779 444 1 4.1499999999999998e-01 8.9880491641558820e+00 7.6923464136681741e+00 1.0537663501189565e+01 -4 3 0
3778 444 2 -8.2999999999999996e-01 8.7240409751321621e+00 7.0167719574976557e+00 9.9130590891691739e+00 -4 3 0
4992 444 1 4.1499999999999998e-01 2.8855190770203705e+00 6.6410470617678978e+00 1.3884850141730340e+01 3 2 0
5209 444 2 -8.2999999999999996e-01 9.7545569158848888e+00 2.6202676670088563e+00 1.3560461976666096e+01 2 0 0
3377 444 1 4.1499999999999998e-01 9.1843669534827459e+00 4.9112647129791293e-01 1.0257810056761331e+01 2 -2 0
4990 444 2 -8.2999999999999996e-01 1.9536095294944156e+00 6.7450045995231118e+00 1.4077127276647539e+01 3 2 0
1399 444 2 -8.2999999999999996e-01 3.4907157344680426e+00 2.3783533880063663e+00 1.3566580156604433e+01 2 0 0
4991 444 1 4.1499999999999998e-01 1.5530670380675451e+00 5.9315759796702920e+00 1.3770317240823227e+01 3 2 0
2546 444 1 4.1499999999999998e-01 1.0355959746569722e+01 6.2628535786495165e+00 1.0033520609796751e+01 0 -1 0
5211 444 1 4.1499999999999998e-01 1.0181431233266546e+01 2.2008956423564099e+00 1.4307548406691343e+01 2 0 0
993 444 1 4.1499999999999998e-01 1.1693330215892075e+00 3.6541268910940761e+00 1.4629863644988076e+01 3 3 0
1400 444 1 4.1499999999999998e-01 3.0992562105508403e+00 2.8776377280900993e+00 1.2849846983285250e+01 2 0 0
4556 444 1 4.1499999999999998e-01 4.7093651801759853e+00 6.9766976341165661e+00 1.2871916408010630e+01 2 2 0
2096 444 1 4.1499999999999998e-01 4.7405775123241991e+00 3.1784116855287001e+00 1.4490555297369498e+01 -1 0 0
2095 444 2 -8.2999999999999996e-01 5.3608577494434755e+00 3.8787184019105112e+00 1.4693175128362583e+01 -1 0 0
2097 444 1 4.1499999999999998e-01 4.9101140216432881e+00 4.6816366313315552e+00 1.4431671278291203e+01 -1 0 0
4637 444 1 4.1499999999999998e-01 7.6122801820151471e+00 6.2486219027961143e+00 1.3213954209033410e+01 -1 -2 0
4638 444 1 4.1499999999999998e-01 6.7696626224794016e+00 5.0020073909572718e+00 1.3380816714046572e+01 -1 -2 0
1401 444 1 4.1499999999999998e-01 3.7975658731758672e+00 1.5698272747340916e+00 1.3156262752144007e+01 2 0 0
3093 444 1 4.1499999999999998e-01 7.0897109519820614e+00 1.7898620007007970e+00 1.5261872983491374e+01 -3 1 0
3091 444 2 -8.2999999999999996e-01 6.8643674060953686e+00 2.2745593928129115e+00 1.6055926228065537e+01 -3 1 0
2545 444 2 -8.2999999999999996e-01 1.1081152775995122e+01 5.7426678146156256e+00 1.0379546257261291e+01 0 -1 0
351 444 1 4.1499999999999998e-01 8.8254655229745929e+00 5.0557246512778855e+00 1.2192459887508850e+01 0 -1 0
4636 444 2 -8.2999999999999996e-01 7.2881884441361038e+00 5.4845973798997445e+00 1.2737023493897322e+01 -1 -2 0
3092 444 1 4.1499999999999998e-01 6.3136496952645036e+00 2.9948941876196207e+00 1.5749234787326413e+01 -3 1 0
5676 444 1 4.1499999999999998e-01 2.1216921472813395e+00 6.7568960154006437e+00 1.5982081411638887e+01 1 -3 0
5648 444 1 4.1499999999999998e-01 1.1021804188148852e+01 5.1043957426561066e+00 1.2730153218847596e+01 -1 1 0
349 444 2 -8.2999999999999996e-01 9.6257816842785058e+00 4.5544883958103313e+00 1.2035972998434191e+01 0 -1 0
350 444 1 4.1499999999999998e-01 9.5876895048453292e+00 3.8376775985349783e+00 1.2669189581446245e+01 0 -1 0
710 444 1 4.1499999999999998e-01 1.7496150045345464e+00 1.4789101610541306e+00 1.6224452034318013e+01 -2 0 0
709 444 2 -8.2999999999999996e-01 1.6516057441652614e+00 2.2992669840824935e+00 1.5741088111229658e+01 -2 0 0
4316 444 1 4.1499999999999998e-01 4.9729360133413918e+00 5.6039130837321871e-01 1.0074072483741439e+01 0 0 0
4057 444 2 -8.2999999999999996e-01 1.0673489150618243e+01 5.3016226688413868e+00 1.6024337320572190e+01 5 1 0
4058 444 1 4.1499999999999998e-01 1.0204915709194838e+01 6.1357139819952637e+00 1.6055360849839754e+01 5 1 0
964 444 2 -8.2999999999999996e-01 9.6707662374061143e-01 3.6023538370051189e-01 1.1226749114584315e+01 0 2 0
5223 444 1 4.1499999999999998e-01 8.7690487897906308e+00 7.7361110715399830e+00 1.5065216558361040e+01 0 4 0
2344 444 2 -8.2999999999999996e-01 1.1001995733646920e+01 7.4676813958353472e-01 1.5703159736107974e+01 1 0 0
4059 444 1 4.1499999999999998e-01 1.1272352526017851e+01 5.3902197615287104e+00 1.5282889370595500e+01 5 1 0
966 444 1 4.1499999999999998e-01 2.1329542111064703e-01 9.4896288350126878e-01 1.1264770995940058e+01 0 2 0
3780 444 1 4.1499999999999998e-01 7.7701713366087795e+00 7.0860621053089989e+00 9.8735188492472439e+00 -4 3 0
2163 444 1 4.1499999999999998e-01 1.8279632098918275e-01 3.1440327212346957e+00 1.0250735238669394e+01 1 2 0
1901 444 1 4.1499999999999998e-01 3.3449838633990736e+00 1.8588433780455240e+00 1.0426335429297135e+01 1 2 0
1902 444 1 4.1499999999999998e-01 2.4701998867938104e+00 6.5397242750324081e-01 1.0152594385257853e+01 1 2 0
2547 444 1 4.1499999999999998e-01 1.0688681848049439e+01 5.2181841514225598e+00 1.1077482763518264e+01 0 -1 0
5221 444 2 -8.2999999999999996e-01 9.4201110291943522e+00 7.6799812811654107e+00 1.5764644376582494e+01 0 4 0
2804 444 1 4.1499999999999998e-01 8.1343936924002391e-01 7.7093886234520319e+00 1.0098040084926453e+01 4 2 0
2579 444 1 4.1499999999999998e-01 1.5656715913009595e-01 7.5045309337644674e+00 1.4842990924059256e+01 0 1 0
51 444 1 4.1499999999999998e-01 8.3346740050711199e-01 6.8339431401319928e-02 1.3167611975263874e+01 0 -2 0
1308 444 1 4.1499999999999998e-01 3.9151337792179062e+00 6.8454809574231987e+00 2.1995992008314818e+01 -2 4 0
2345 444 1 4.1499999999999998e-01 1.1097207459995470e+01 1.2366434191744433e+00 1.6519975982185986e+01 1 0 0
1126 444 2 -8.2999999999999996e-01 2.1104114730917445e-02 3.3424900676001883e+00 1.7682494995110964e+01 -3 5 0
5094 444 1 4.1499999999999998e-01 1.0551575568833961e+01 3.1115211978211317e+00 1.7827678278414535e+01 0 0 0
792 444 1 4.1499999999999998e-01 9.2289504843534864e+00 1.2028854592261806e+00 1.7860825797211522e+01 -6 2 0
5028 444 1 4.1499999999999998e-01 1.0577966068507378e+00 4.4869332733239375e-01 1.8472469929132572e+01 1 2 0
3178 444 2 -8.2999999999999996e-01 8.8064526721272518e+00 3.8889869415102183e+00 1.7454004678913062e+01 1 -1 0
2643 444 1 4.1499999999999998e-01 1.0165035259664057e+01 5.4091755775448502e-01 2.1562379691358494e+01 4 0 0
3942 444 1 4.1499999999999998e-01 1.4957465315699650e+00 4.6659747060414496e+00 1.8458215607972367e+01 1 -1 0
3940 444 2 -8.2999999999999996e-01 2.3422050001660244e+00 4.9841254957037204e+00 1.8772094733283193e+01 1 -1 0
1128 444 1 4.1499999999999998e-01 5.9463121106790617e-01 2.9266312913410011e+00 1.7038786470499424e+01 -3 5 0
5852 444 1 4.1499999999999998e-01 3.0121025474406200e+00 4.8069150228011781e-01 2.3259185278612954e+01 0 -3 0
2018 444 1 4.1499999999999998e-01 2.9430554579509201e+00 2.1348576343858023e+00 2.0184338875462917e+01 0 1 0
2224 444 2 -8.2999999999999996e-01 1.1407573176151413e+01 5.9071561748518109e+00 1.8771767221381076e+01 -1 1 0
4533 444 1 4.1499999999999998e-01 6.6860280270315009e+00 1.6697625260079327e+00 1.9430781061790729e+01 -4 1 0
1317 444 1 4.1499999999999998e-01 6.0841582698918009e+00 3.5441339235673204e+00 2.0019650925000782e+01 2 -3 0
1315 444 2 -8.2999999999999996e-01 5.7245708700653246e+00 4.0361823728157695e+00 2.0757768194610502e+01 2 -3 0
4531 444 2 -8.2999999999999996e-01 6.3701545484871005e+00 2.4349094020968853e+00 1.8950149958951140e+01 -4 1 0
4194 444 1 4.1499999999999998e-01 6.7443643978428209e+00 7.6738203076976907e-01 2.2039965331522250e+01 -2 5 0
4532 444 1 4.1499999999999998e-01 6.5980789614576292e+00 2.2561483536204503e+00 1.8037830258696317e+01 -4 1 0
790 444 2 -8.2999999999999996e-01 8.8367469985496196e+00 6.6195561972306283e-01 1.8546247723623729e+01 -6 2 0
4219 444 2 -8.2999999999999996e-01 7.2193480065519449e+00 2.1761279707965384e+00 2.3069002853567948e+01 1 1 0
4221 444 1 4.1499999999999998e-01 6.5629373996091944e+00 2.2780058097791347e+00 2.3758190088384481e+01 1 1 0
3719 444 1 4.1499999999999998e-01 3.0569240951094940e+00 5.1023592603627774e+00 2.0314492640839124e+01 2 -1 0
4220 444 1 4.1499999999999998e-01 7.2052499496247613e+00 3.0098810718196090e+00 2.2599014218691568e+01 1 1 0
3718 444 2 -8.2999999999999996e-01 3.5348061331257150e+00 5.2757913285969975e+00 2.1125530191654551e+01 2 -1 0
3433 444 2 -8.2999999999999996e-01 2.3119378810968472e-02 5.3244012884995735e+00 2.1289596853479829e+01 5 -3 0
4891 444 2 -8.2999999999999996e-01 7.9660828012729663e+00 5.4405639408691826e+00 2.1957184107557602e+01 0 2 0
3720 444 1 4.1499999999999998e-01 4.3919532395747414e+00 4.8718241397545210e+00 2.0990100396739145e+01 2 -1 0
4893 444 1 4.1499999999999998e-01 8.2791126643215858e+00 6.2302724960381273e+00 2.2398325057555592e+01 0 2 0
1316 444 1 4.1499999999999998e-01 6.4336964917697559e+00 4.6212016402498310e+00 2.1024461000999761e+01 2 -3 0
5851 444 2 -8.2999999999999996e-01 2.8593513204009287e+00 1.4124613448259116e+00 2.3102010673641139e+01 0 -3 0
3304 444 2 -8.2999999999999996e-01 8.7105417980855027e+00 5.9214445742109287e+00 1.9272654204735087e+01 3 2 0
2017 444 2 -8.2999999999999996e-01 3.7250886101439895e+00 1.7321737518599221e+00 2.0561833061230789e+01 0 1 0
4892 444 1 4.1499999999999998e-01 8.6457933295643006e+00 5.2396080488765682e+00 2.1313878273808257e+01 0 2 0
3941 444 1 4.1499999999999998e-01 2.5300714075934598e+00 5.7464786540256441e+00 1.8224594980488316e+01 1 -1 0
2019 444 1 4.1499999999999998e-01 4.4461962031580313e+00 2.2915838515158882e+00 2.0273221372383091e+01 0 1 0
3179 444 1 4.1499999999999998e-01 8.2196492158512537e+00 3.3513378616417051e+00 1.6922189331965441e+01 1 -1 0
5853 444 1 4.1499999999999998e-01 3.2335971575834228e+00 1.5742672668716751e+00 2.2235990611002848e+01 0 -3 0
2086 444 2 -8.2999999999999996e-01 9.4556669058366563e+00 6.3470504673175288e-01 2.3592114249462526e+01 4 0 0
5674 444 2 -8.2999999999999996e-01 2.3952541636956188e+00 7.2855562757285020e+00 1.6731690646162704e+01 1 -3 0
2087 444 1 4.1499999999999998e-01 8.7851937378741365e+00 1.3140682243818194e+00 2.3663978190942270e+01 4 0 0
5166 444 1 4.1499999999999998e-01 1.0689904284775899e+01 2.9507278542802413e+00 2.1207404549043904e+01 -1 -2 0
1199 444 1 4.1499999999999998e-01 2.7201789720262362e+00 3.6102260529818979e+00 2.3369448038390797e+01 2 -1 0
1198 444 2 -8.2999999999999996e-01 2.6043707177510904e+00 4.5469441581298780e+00 2.3528757390854715e+01 2 -1 0
3306 444 1 4.1499999999999998e-01 9.6554163784923972e+00 6.0745407683640451e+00 1.9274983770955583e+01 3 2 0
2642 444 1 4.1499999999999998e-01 1.0037279731779105e+01 1.9683600812302746e-01 2.0093644869376124e+01 4 0 0
3180 444 1 4.1499999999999998e-01 9.4043898388479814e+00 4.2885163224424545e+00 1.6822276664148745e+01 1 -1 0
1200 444 1 4.1499999999999998e-01 2.7083102448824845e+00 4.9515042058701448e+00 2.2667502734014484e+01 2 -1 0
2641 444 2 -8.2999999999999996e-01 1.0626319829875602e+01 6.0788608745106909e-01 2.0726339100987691e+01 4 0 0
5093 444 1 4.1499999999999998e-01 1.1377365018952236e+01 2.3594201355986866e+00 1.8849593644986658e+01 0 0 0
5092 444 2 -8.2999999999999996e-01 1.1161329380103023e+01 2.3791274606179837e+00 1.7917299567962587e+01 0 0 0
5026 444 2 -8.2999999999999996e-01 1.3620393378261957e+00 1.3178953376527053e-01 1.7622034597298253e+01 1 2 0
3305 444 1 4.1499999999999998e-01 8.5798951259095730e+00 5.2372900081711409e+00 1.8616075322601567e+01 3 2 0
826 444 2 -8.2999999999999996e-01 8.5683781733709719e+00 7.6373275594074990e+00 2.3467321710880540e+01 0 1 0
5164 444 2 -8.2999999999999996e-01 1.1072438741002376e+01 3.8224470049096184e+00 2.1307429420071806e+01 -1 -2 0
1306 444 2 -8.2999999999999996e-01 4.1510177499697010e+00 7.6543924793869014e+00 2.2450143233153810e+01 -2 4 0
1307 444 1 4.1499999999999998e-01 3.7982825643257594e+00 7.5454091380343495e+00 2.3333281060171267e+01 -2 4 0
791 444 1 4.1499999999999998e-01 8.2418299856168851e+00 7.5886947706791830e-02 1.8078455623316216e+01 -6 2 0
611 444 1 4.1499999999999998e-01 3.7022485914364296e+00 4.2618787459147711e-03 1.9598310871931513e+01 -1 3 0
292 444 2 -8.2999999999999996e-01 2.6325112646563698e-01 6.8916794509423616e+00 2.5256703535641385e+01 -1 3 0
4576 444 2 -8.2999999999999996e-01 9.0905250325932290e+00 1.1649300574985857e+00 3.1405028780164731e+01 -1 1 0
2617 444 2 -8.2999999999999996e-01 2.4385428929145646e-02 6.8811582736096444e+00 3.1475511338780088e+01 2 -3 0
200 444 1 4.1499999999999998e-01 2.3095603812794807e+00 6.8939492514657168e+00 3.0002192743429948e+01 0 -1 0
4578 444 1 4.1499999999999998e-01 9.8881030215924977e+00 8.3654702911323642e-01 3.1820077990715557e+01 -1 1 0
201 444 1 4.1499999999999998e-01 2.1531315331383745e+00 7.7516682219202666e+00 2.8764556510781009e+01 0 -1 0
5270 444 1 4.1499999999999998e-01 5.4627385769384169e+00 3.7990391335649840e+00 2.4773124851903134e+01 -2 3 0
2463 444 1 4.1499999999999998e-01 1.0845983141969276e+01 1.4225334982923028e+00 2.4536766445347563e+01 5 0 0
1140 444 1 4.1499999999999998e-01 2.5398018354204770e+00 5.2831343707585816e+00 2.5510153797065101e+01 2 3 0
827 444 1 4.1499999999999998e-01 8.4509615459534828e+00 7.5510466540168499e+00 2.4413366520403191e+01 0 1 0
294 444 1 4.1499999999999998e-01 1.1445675841488603e+00 6.9793351046403505e+00 2.4893619871956080e+01 -1 3 0
199 444 2 -8.2999999999999996e-01 1.6652221754345655e+00 7.1751140058499798e+00 2.9352572153287927e+01 0 -1 0
1139 444 1 4.1499999999999998e-01 3.6852517381552561e+00 6.2548853891085026e+00 2.5698673586775303e+01 2 3 0
1367 444 1 4.1499999999999998e-01 1.3696765349552509e+00 2.3295349863661947e+00 2.4380489106124710e+01 1 2 0
3094 444 2 -8.2999999999999996e-01 6.4512919548977834e+00 1.2395141276043173e+00 3.2234667068834192e+01 2 3 0
1138 444 2 -8.2999999999999996e-01 3.0291159842223658e+00 5.7548603327003081e+00 2.6184155633226275e+01 2 3 0
5269 444 2 -8.2999999999999996e-01 5.3939578973766791e+00 2.8507053334494001e+00 2.4883416723351946e+01 -2 3 0
3182 444 1 4.1499999999999998e-01 6.1072463591845292e+00 6.6577281980097611e+00 2.7078523005099857e+01 5 -2 0
2005 444 2 -8.2999999999999996e-01 5.0611943751335948e+00 6.7193809664760895e+00 3.0151250151479779e+01 0 0 0
5271 444 1 4.1499999999999998e-01 6.0649852121158467e+00 2.6351314404816462e+00 2.5531091314586796e+01 -2 3 0
1466 444 1 4.1499999999999998e-01 1.0025098303336383e+01 5.2592456177282108e+00 2.7162855770400963e+01 1 0 0
1222 444 2 -8.2999999999999996e-01 7.5459096174648388e-01 3.3800569747754907e+00 2.9444885595710836e+01 1 -2 0
4049 444 1 4.1499999999999998e-01 6.8965246150770421e+00 1.4859336952028739e+00 2.7736108930446875e+01 1 1 0
1224 444 1 4.1499999999999998e-01 5.6646649821394801e-01 4.1090468292757603e+00 2.8853772004584421e+01 1 -2 0
1366 444 2 -8.2999999999999996e-01 8.3064749620925538e-01 2.4114101167063131e+00 2.5167239768743524e+01 1 2 0
4050 444 1 4.1499999999999998e-01 7.1707611827468414e+00 3.0648805356350506e-01 2.8644732844419721e+01 1 1 0
5949 444 1 4.1499999999999998e-01 3.7437370939183006e+00 1.7387254213852597e+00 2.6850680404233195e+01 1 3 0
749 444 1 4.1499999999999998e-01 8.8586093201259946e+00 6.7122883787633931e+00 3.1395583278824684e+01 1 1 0
1223 444 1 4.1499999999999998e-01 1.6293882036787497e+00 3.5669183045722095e+00 2.9785538991992528e+01 1 -2 0
3181 444 2 -8.2999999999999996e-01 5.8130168098164585e+00 7.5239791737770929e+00 2.6796971624148135e+01 5 -2 0
2298 444 1 4.1499999999999998e-01 5.3366065082251808e+00 3.8321752952934469e+00 2.9440360201784078e+01 0 -1 0
5948 444 1 4.1499999999999998e-01 3.8750815369030667e+00 2.8172245321367373e+00 2.5796411229650506e+01 1 3 0
1239 444 1 4.1499999999999998e-01 7.2309199416787049e+00 4.6896948774363958e+00 3.1025402747860358e+01 -3 3 0
5947 444 2 -8.2999999999999996e-01 3.3795093248546988e+00 2.5817622507511029e+00 2.6580756533368856e+01 1 3 0
1465 444 2 -8.2999999999999996e-01 9.5060851857772040e+00 4.4848355136370666e+00 2.7379988070718813e+01 1 0 0
2297 444 1 4.1499999999999998e-01 6.2418691628974852e+00 2.6213972749045467e+00 2.9520430808518135e+01 0 -1 0
1612 444 2 -8.2999999999999996e-01 4.0498528424902478e+00 8.8016032040319070e-01 2.9951877436565848e+01 2 -4 0
1613 444 1 4.1499999999999998e-01 4.8976265848660914e+00 6.7126932734140121e-01 2.9559606618582855e+01 2 -4 0
2850 444 1 4.1499999999999998e-01 3.7809917860093591e+00 3.3861395207027583e+00 3.2013935132778116e+01 5 0 0
2849 444 1 4.1499999999999998e-01 3.3188678323664598e+00 2.3947937824441432e+00 3.0967240069461447e+01 5 0 0
1281 444 1 4.1499999999999998e-01 3.3591709131901264e+00 3.6717497986325771e+00 2.7966147857288146e+01 1 -1 0
2955 444 1 4.1499999999999998e-01 8.4659058558122702e+00 2.8102324085249974e+00 2.6336828164513484e+01 -2 2 0
1280 444 1 4.1499999999999998e-01 3.7375636847754503e+00 5.1307577095687247e+00 2.8107604534511179e+01 1 -1 0
2154 444 1 4.1499999999999998e-01 1.3810681143166295e-01 5.5794207245131719e+00 2.6705075027230482e+01 -1 -2 0
2954 444 1 4.1499999999999998e-01 8.7952251642707289e+00 1.3338090111934422e+00 2.6396976956813468e+01 -2 2 0
1614 444 1 4.1499999999999998e-01 3.4071768666902700e+00 5.2888858932454241e-01 2.9335591725644115e+01 2 -4 0
2953 444 2 -8.2999999999999996e-01 8.0801589377801193e+00 1.9559247668679629e+00 2.6530708510943558e+01 -2 2 0
1279 444 2 -8.2999999999999996e-01 3.7439646990263071e+00 4.2979266297840306e+00 2.8579391842164597e+01 1 -1 0
2152 444 2 -8.2999999999999996e-01 1.2966763646519161e-01 5.4660901283125467e+00 2.7655505373236572e+01 -1 -2 0
2153 444 1 4.1499999999999998e-01 8.3225242552649503e-01 6.0343707391298587e+00 2.7971202074388799e+01 -1 -2 0
2848 444 2 -8.2999999999999996e-01 3.0514550198081536e+00 3.1914051985004468e+00 3.1425643399072879e+01 5 0 0
2296 444 2 -8.2999999999999996e-01 6.1461603104879785e+00 3.5176083732890060e+00 2.9842730857210281e+01 0 -1 0
2181 444 1 4.1499999999999998e-01 6.4532920127542823e+00 4.5188615173480597e+00 2.8020976458894129e+01 0 2 0
1467 444 1 4.1499999999999998e-01 1.0153505734940822e+01 3.8204708908767513e+00 2.7615993846707088e+01 1 0 0
2180 444 1 4.1499999999999998e-01 7.6871393524423421e+00 4.8417615045395976e+00 2.7205346817850995e+01 0 2 0
2179 444 2 -8.2999999999999996e-01 6.7616947254687316e+00 5.0673461630320311e+00 2.7299668926274617e+01 0 2 0
4048 444 2 -8.2999999999999996e-01 6.5921505952767649e+00 1.0615442454337554e+00 2.8538282156275272e+01 1 1 0
748 444 2 -8.2999999999999996e-01 9.2696837144290924e+00 7.5736907120275383e+00 3.1467941549507859e+01 1 1 0
2007 444 1 4.1499999999999998e-01 4.4983778177375955e+00 6.8244534304580808e+00 3.0918341689892529e+01 0 0 0
1368 444 1 4.1499999999999998e-01 1.4455774496850409e+00 2.6702956473445245e+00 2.5853586675064644e+01 1 2 0
1604 444 1 4.1499999999999998e-01 8.9116860610756419e+00 4.3097281194067625e+00 3.2372322974098772e+01 0 2 0
2006 444 1 4.1499999999999998e-01 5.1920621457537557e+00 5.7740579303277304e+00 3.0077290878612221e+01 0 0 0
4577 444 1 4.1499999999999998e-01 9.1854291906685486e+00 2.1172506155846129e+00 3.1422657579251400e+01 -1 1 0
1237 444 2 -8.2999999999999996e-01 7.6791457769685314e+00 5.2047948423518706e+00 3.1696221257609047e+01 -3 3 0
1238 444 1 4.1499999999999998e-01 6.9973848335649862e+00 5.4113970260430300e+00 3.2335556377833463e+01 -3 3 0
3096 444 1 4.1499999999999998e-01 5.8420887853801187e+00 5.8320770261716470e-01 3.1896487622540931e+01 2 3 0
2640 444 1 4.1499999999999998e-01 1.1103970460407266e+01 3.6880016501406550e+00 3.1657206748513861e+01 0 0 0
3095 444 1 4.1499999999999998e-01 7.1826589440329753e+00 1.2287975294433044e+00 3.1617236991792367e+01 2 3 0
2618 444 1 4.1499999999999998e-01 3.1982219241660270e-01 6.6812578130614364e+00 3.0587260717003200e+01 2 -3 0
3183 444 1 4.1499999999999998e-01 5.0938519312113355e+00 7.7380567514306922e+00 2.7391281833433212e+01 5 -2 0
3894 444 1 4.1499999999999998e-01 4.9755750740544930e-01 1.7547915277492721e+00 3.4489146619185078e+01 -2 -3 0
2300 444 1 4.1499999999999998e-01 7.0360084819699131e-01 1.8972780019801110e+00 4.0044617372355056e+01 1 -3 0
3892 444 2 -8.2999999999999996e-01 2.3461734648252017e-01 1.0115109143203844e+00 3.5031943271924945e+01 -2 -3 0
2586 444 1 4.1499999999999998e-01 6.4321089235334936e+00 3.9336870333486855e+00 3.6071992449502510e+01 2 2 0
2301 444 1 4.1499999999999998e-01 8.6001477665725856e-01 1.3273045317809520e+00 3.8650859719554575e+01 1 -3 0
812 444 1 4.1499999999999998e-01 6.9578534890774231e+00 1.4970595456828888e+00 3.5344931906783629e+01 1 2 0
907 444 2 -8.2999999999999996e-01 9.7288531677200440e-01 3.0652851598369666e+00 3.3344897942154972e+01 2 -1 0
2299 444 2 -8.2999999999999996e-01 1.0244118358045089e+00 2.1148914024920309e+00 3.9169427897992229e+01 1 -3 0
1464 444 1 4.1499999999999998e-01 9.5732279834680138e+00 3.5481053853313727e+00 3.6314119812161053e+01 -3 3 0
5526 444 1 4.1499999999999998e-01 1.0643336674433819e+00 5.0351432985914748e+00 3.5791442381281769e+01 3 -2 0
908 444 1 4.1499999999999998e-01 2.4593002118914123e-01 2.8878239124572640e+00 3.2748009890306093e+01 2 -1 0
4890 444 1 4.1499999999999998e-01 8.7728533811483729e+00 7.0907985615619538e+00 3.4257283752687066e+01 -4 -4 0
5428 444 2 -8.2999999999999996e-01 6.3348777644426342e+00 5.5798466247866054e+00 3.6511625319325631e+01 -1 3 0