LAMMPS data file via write_data, version 11 Aug 2017, timestep = 500000

7155 atoms
4 atom types
4000 bonds
1 bond types
2000 angles
1 angle types

0.0000000000000000e+00 4.5679949999999998e+01 xlo xhi
0.0000000000000000e+00 4.6885919999999999e+01 ylo yhi
0.0000000000000000e+00 6.5000000000000000e+01 zlo zhi

Masses

1 1.0079
2 15.9994
3 18.9984
4 107.868

Bond Coeffs # harmonic

1 450 0.9572

Angle Coeffs # harmonic

1 55 104.52

Atoms # full

6004 444 4 0.0000000000000000e+00 1.6907200000000000e+00 0.0000000000000000e+00 0.0000000000000000e+00 0 0 0
6005 444 4 0.0000000000000000e+00 4.2285000000000004e+00 1.4651900000000000e+00 0.0000000000000000e+00 0 0 0
6006 444 4 1.0420000000000000e-02 1.6907700000000001e+00 0.0000000000000000e+00 7.1781499999999996e+00 0 0 0
6007 444 4 1.0420000000000000e-02 4.2285500000000003e+00 1.4651900000000000e+00 7.1781499999999996e+00 0 0 0
6008 444 4 0.0000000000000000e+00 2.5366499999999998e+00 1.4651900000000000e+00 2.3926400000000001e+00 0 0 0
6009 444 4 0.0000000000000000e+00 5.0744199999999999e+00 0.0000000000000000e+00 2.3926400000000001e+00 0 0 0
6010 444 4 0.0000000000000000e+00 8.4509000000000001e-01 1.4651900000000000e+00 4.7824200000000001e+00 0 0 0
6011 444 4 0.0000000000000000e+00 3.3828600000000000e+00 0.0000000000000000e+00 4.7824499999999999e+00 0 0 0
6012 444 4 0.0000000000000000e+00 1.6907200000000000e+00 2.9303699999999999e+00 0.0000000000000000e+00 0 0 0
6013 444 4 0.0000000000000000e+00 4.2285000000000004e+00 4.3955599999999997e+00 0.0000000000000000e+00 0 0 0
6014 444 4 1.0420000000000000e-02 1.6907700000000001e+00 2.9303699999999999e+00 7.1781899999999998e+00 0 0 0
6015 444 4 1.0420000000000000e-02 4.2285500000000003e+00 4.3955599999999997e+00 7.1781600000000001e+00 0 0 0
6016 444 4 0.0000000000000000e+00 2.5366499999999998e+00 4.3955599999999997e+00 2.3926400000000001e+00 0 0 0
6017 444 4 0.0000000000000000e+00 5.0744199999999999e+00 2.9303699999999999e+00 2.3926400000000001e+00 0 0 0
6018 444 4 0.0000000000000000e+00 8.4509000000000001e-01 4.3955599999999997e+00 4.7824499999999999e+00 0 0 0
6019 444 4 0.0000000000000000e+00 3.3828700000000000e+00 2.9303699999999999e+00 4.7824400000000002e+00 0 0 0
6020 444 4 0.0000000000000000e+00 1.6907200000000000e+00 5.8607399999999998e+00 0.0000000000000000e+00 0 0 0
6021 444 4 0.0000000000000000e+00 4.2285000000000004e+00 7.3259299999999996e+00 0.0000000000000000e+00 0 0 0
6022 444 4 1.0420000000000000e-02 1.6907700000000001e+00 5.8607399999999998e+00 7.1781499999999996e+00 0 0 0
6023 444 4 1.0420000000000000e-02 4.2285500000000003e+00 7.3259299999999996e+00 7.1781499999999996e+00 0 0 0
6024 444 4 0.0000000000000000e+00 2.5366499999999998e+00 7.3259299999999996e+00 2.3926400000000001e+00 0 0 0
6025 444 4 0.0000000000000000e+00 5.0744199999999999e+00 5.8607399999999998e+00 2.3926400000000001e+00 0 0 0
6026 444 4 0.0000000000000000e+00 8.4509000000000001e-01 7.3259299999999996e+00 4.7824200000000001e+00 0 0 0
6027 444 4 0.0000000000000000e+00 3.3828600000000000e+00 5.8607399999999998e+00 4.7824499999999999e+00 0 0 0
6132 444 4 0.0000000000000000e+00 6.7662699999999996e+00 0.0000000000000000e+00 0.0000000000000000e+00 0 0 0
6134 444 4 1.0420000000000000e-02 6.7663200000000003e+00 0.0000000000000000e+00 7.1781499999999996e+00 0 0 0
6136 444 4 0.0000000000000000e+00 7.6121999999999996e+00 1.4651900000000000e+00 2.3926400000000001e+00 0 0 0
6138 444 4 0.0000000000000000e+00 5.9206399999999997e+00 1.4651900000000000e+00 4.7824200000000001e+00 0 0 0
6140 444 4 0.0000000000000000e+00 6.7662699999999996e+00 2.9303699999999999e+00 0.0000000000000000e+00 0 0 0
6142 444 4 1.0420000000000000e-02 6.7663200000000003e+00 2.9303699999999999e+00 7.1781899999999998e+00 0 0 0
6144 444 4 0.0000000000000000e+00 7.6121999999999996e+00 4.3955599999999997e+00 2.3926400000000001e+00 0 0 0
6146 444 4 0.0000000000000000e+00 5.9206399999999997e+00 4.3955599999999997e+00 4.7824499999999999e+00 0 0 0
6148 444 4 0.0000000000000000e+00 6.7662699999999996e+00 5.8607399999999998e+00 0.0000000000000000e+00 0 0 0
6150 444 4 1.0420000000000000e-02 6.7663200000000003e+00 5.8607399999999998e+00 7.1781499999999996e+00 0 0 0
6152 444 4 0.0000000000000000e+00 7.6121999999999996e+00 7.3259299999999996e+00 2.3926400000000001e+00 0 0 0
6154 444 4 0.0000000000000000e+00 5.9206399999999997e+00 7.3259299999999996e+00 4.7824200000000001e+00 0 0 0
6133 444 4 0.0000000000000000e+00 9.3040500000000002e+00 1.4651900000000000e+00 0.0000000000000000e+00 0 0 0
6135 444 4 1.0420000000000000e-02 9.3041000000000000e+00 1.4651900000000000e+00 7.1781499999999996e+00 0 0 0
6137 444 4 0.0000000000000000e+00 1.0149970000000000e+01 0.0000000000000000e+00 2.3926400000000001e+00 0 0 0
6139 444 4 0.0000000000000000e+00 8.4584100000000007e+00 0.0000000000000000e+00 4.7824499999999999e+00 0 0 0
6141 444 4 0.0000000000000000e+00 9.3040500000000002e+00 4.3955599999999997e+00 0.0000000000000000e+00 0 0 0
6143 444 4 1.0420000000000000e-02 9.3041000000000000e+00 4.3955599999999997e+00 7.1781600000000001e+00 0 0 0
6145 444 4 0.0000000000000000e+00 1.0149970000000000e+01 2.9303699999999999e+00 2.3926400000000001e+00 0 0 0
6147 444 4 0.0000000000000000e+00 8.4584200000000003e+00 2.9303699999999999e+00 4.7824400000000002e+00 0 0 0
6149 444 4 0.0000000000000000e+00 9.3040500000000002e+00 7.3259299999999996e+00 0.0000000000000000e+00 0 0 0
6151 444 4 1.0420000000000000e-02 9.3041000000000000e+00 7.3259299999999996e+00 7.1781499999999996e+00 0 0 0
6153 444 4 0.0000000000000000e+00 1.0149970000000000e+01 5.8607399999999998e+00 2.3926400000000001e+00 0 0 0
6155 444 4 0.0000000000000000e+00 8.4584100000000007e+00 5.8607399999999998e+00 4.7824499999999999e+00 0 0 0
6266 444 4 0.0000000000000000e+00 1.0996190000000000e+01 1.4651900000000000e+00 4.7824200000000001e+00 0 0 0
6274 444 4 0.0000000000000000e+00 1.0996190000000000e+01 4.3955599999999997e+00 4.7824499999999999e+00 0 0 0
6282 444 4 0.0000000000000000e+00 1.0996190000000000e+01 7.3259299999999996e+00 4.7824200000000001e+00 0 0 0
3153 444 1 4.1499999999999998e-01 1.1012346695264046e+00 7.5215517303784400e+00 1.0260438925847113e+01 1 -1 0
1753 444 2 -8.2999999999999996e-01 6.1254424381988426e-01 5.8121400343735470e+00 1.0291152378762755e+01 2 2 0
1754 444 1 4.1499999999999998e-01 7.8536230846791599e-01 4.8769671594158766e+00 1.0182439378449640e+01 2 2 0
719 444 1 4.1499999999999998e-01 4.7217043980589235e+00 5.0450367777640395e+00 1.3375336863082058e+01 4 0 0
819 444 1 4.1499999999999998e-01 5.5240513589718541e+00 5.9779863279079883e+00 1.0148071255379980e+01 2 0 0
718 444 2 -8.2999999999999996e-01 5.5289903755093430e+00 5.3159870754998213e+00 1.3812495377832168e+01 4 0 0
720 444 1 4.1499999999999998e-01 5.7276670848097186e+00 4.5994064690794119e+00 1.4415215894773681e+01 4 0 0
817 444 2 -8.2999999999999996e-01 5.4486730299397035e+00 5.0255446935684187e+00 1.0206429399174654e+01 2 0 0
5523 444 1 4.1499999999999998e-01 9.6535494168708924e-01 2.5330976058884591e+00 1.1014485451060773e+01 0 4 0
5521 444 2 -8.2999999999999996e-01 7.8926747245639295e-01 3.0813591502818354e+00 1.0249871233915052e+01 0 4 0
818 444 1 4.1499999999999998e-01 6.3427013843640143e+00 4.7061210032016234e+00 1.0084305870189448e+01 2 0 0
3879 444 1 4.1499999999999998e-01 1.9887603985657090e+00 2.3499571654480884e+00 1.3681078218426967e+01 2 0 0
3877 444 2 -8.2999999999999996e-01 1.6226418717118791e+00 2.2660211604118334e+00 1.2800655633815065e+01 2 0 0
4687 444 2 -8.2999999999999996e-01 5.4525859136242838e+00 3.6217822900531083e+00 1.6149537778677114e+01 3 3 0
1467 444 1 4.1499999999999998e-01 6.9535408667413661e+00 2.5825726774045172e+00 1.0458923036694628e+01 0 1 0
5671 444 2 -8.2999999999999996e-01 7.6144552711226199e+00 2.6553426691595217e+00 1.3175575915986808e+01 1 2 0
2066 444 1 4.1499999999999998e-01 2.6098531902195736e+00 3.4778633592754242e+00 1.0019171051612167e+01 2 2 0
3167 444 1 4.1499999999999998e-01 1.0236615936277147e+01 3.4694190269710443e+00 1.1982939447777300e+01 0 -5 0
2065 444 2 -8.2999999999999996e-01 3.5022177301593933e+00 3.1367018278462973e+00 1.0078556982232890e+01 2 2 0
1465 444 2 -8.2999999999999996e-01 7.7844728019309670e+00 3.0386683370872145e+00 1.0592195628146388e+01 0 1 0
1466 444 1 4.1499999999999998e-01 8.4518674861964325e+00 2.3989467582803385e+00 1.0344054726647590e+01 0 1 0
3166 444 2 -8.2999999999999996e-01 9.9368962717914933e+00 3.7226615832790788e+00 1.2856019166290363e+01 0 -5 0
5493 444 1 4.1499999999999998e-01 1.0326150006071494e+01 5.5351296540574202e+00 1.0179664053172873e+01 0 -4 0
139 444 2 -8.2999999999999996e-01 9.5232018492464050e+00 9.5820374432329691e-01 1.0523124495530732e+01 3 -1 0
384 444 1 4.1499999999999998e-01 8.4923433553806795e+00 6.2052485716230148e+00 1.1276960153926170e+01 1 -1 0
5491 444 2 -8.2999999999999996e-01 1.1236424610727486e+01 5.2681734967025085e+00 1.0051727460041672e+01 0 -4 0
2366 444 1 4.1499999999999998e-01 4.9307642263565228e+00 8.9518627131028239e-01 1.1288822500686420e+01 5 -1 0
3168 444 1 4.1499999999999998e-01 9.0048867324104513e+00 3.5046039492047241e+00 1.2862428272597258e+01 0 -5 0
4286 444 1 4.1499999999999998e-01 1.0750221689480822e+01 4.5592857430225218e+00 1.4222224902620956e+01 0 0 0
4287 444 1 4.1499999999999998e-01 1.0903520072192725e+01 6.0646716416568252e+00 1.4175233963756783e+01 0 0 0
2067 444 1 4.1499999999999998e-01 4.0557108672560505e+00 3.9169349626246852e+00 1.0111955264577343e+01 2 2 0
2636 444 1 4.1499999999999998e-01 2.4355434014342525e+00 5.1870576394103294e+00 1.1799992916762548e+01 3 3 0
383 444 1 4.1499999999999998e-01 8.0025768119496341e+00 6.6246410581640554e+00 9.9072397378860781e+00 1 -1 0
4285 444 2 -8.2999999999999996e-01 1.1084142790569715e+01 5.3022078983242675e+00 1.4725012397430389e+01 0 0 0
382 444 2 -8.2999999999999996e-01 8.7917371159844855e+00 6.3629847715061878e+00 1.0381574973576903e+01 1 -1 0
740 444 1 4.1499999999999998e-01 8.3662942587163904e+00 6.3726586189131442e+00 1.3751031815316903e+01 3 0 0
3646 444 2 -8.2999999999999996e-01 1.1425769157224401e+00 6.2011271256860034e+00 1.5791571761870053e+01 -1 -2 0
140 444 1 4.1499999999999998e-01 9.7614232955251605e+00 2.7332648219888850e-01 1.1147964940808833e+01 3 -1 0
3648 444 1 4.1499999999999998e-01 1.6587112574839087e+00 7.0030610762608942e+00 1.5873667359192885e+01 -1 -2 0
5673 444 1 4.1499999999999998e-01 7.5372880924820134e+00 2.5896331107745505e+00 1.2223756434695133e+01 1 2 0
5672 444 1 4.1499999999999998e-01 7.1821657618756074e+00 1.8679650909459236e+00 1.3506323919411404e+01 1 2 0
3878 444 1 4.1499999999999998e-01 7.5215713931694494e-01 1.8921268901272676e+00 1.2937371858355517e+01 2 0 0
3359 444 1 4.1499999999999998e-01 3.2466162161457417e+00 1.8278770882702140e+00 1.5919874548567442e+01 0 -2 0
3358 444 2 -8.2999999999999996e-01 3.3243627215064229e+00 2.4904144966254407e+00 1.5233411465883817e+01 0 -2 0
741 444 1 4.1499999999999998e-01 6.9567270522208071e+00 6.1918785706389663e+00 1.3229175393855696e+01 3 0 0
3360 444 1 4.1499999999999998e-01 4.1426054537368655e+00 2.9460393534895757e+00 1.5431190943821024e+01 0 -2 0
2635 444 2 -8.2999999999999996e-01 3.2128105196177419e+00 5.0826663568808232e+00 1.2348801078474175e+01 3 3 0
2367 444 1 4.1499999999999998e-01 4.8601129986511946e+00 2.1325049007430477e+00 1.0419370624764770e+01 5 -1 0
2637 444 1 4.1499999999999998e-01 3.4240648097779944e+00 4.1508641966399136e+00 1.2290934745346684e+01 3 3 0
739 444 2 -8.2999999999999996e-01 7.8372892791735218e+00 6.4503544270892048e+00 1.2957086626329259e+01 3 0 0
3652 444 2 -8.2999999999999996e-01 9.9249443794839305e+00 2.2418578620841587e+00 1.6122713045201994e+01 1 -1 0
3009 444 1 4.1499999999999998e-01 4.6643629096760959e+00 1.1491459178121772e+00 1.4935341580271080e+01 3 0 0
4666 444 2 -8.2999999999999996e-01 6.4420217893521343e+00 7.6732299307771168e+00 9.6501299720540938e+00 1 0 0
2365 444 2 -8.2999999999999996e-01 5.4733377981489504e+00 1.4827345760088115e+00 1.0762863145555578e+01 5 -1 0
3007 444 2 -8.2999999999999996e-01 5.2235674534586201e+00 3.7846231373498768e-01 1.4837520020487476e+01 3 0 0
2263 444 2 -8.2999999999999996e-01 2.6865451540088592e+00 7.2552850750587594e-01 1.0614309408642054e+01 -3 1 0
3653 444 1 4.1499999999999998e-01 1.0446195149070732e+01 1.4579191371213693e+00 1.5949592619797018e+01 1 -1 0
141 444 1 4.1499999999999998e-01 1.0360651337999156e+01 1.2841808677963971e+00 1.0193504644571705e+01 3 -1 0
2540 444 1 4.1499999999999998e-01 3.2349819098906568e-01 5.5401848456971026e+00 1.4472386091705451e+01 2 1 0
2265 444 1 4.1499999999999998e-01 2.1693321779722452e+00 8.1886058484031721e-01 1.1414316749295146e+01 -3 1 0
2264 444 1 4.1499999999999998e-01 2.9449122460420600e+00 1.6194664287381186e+00 1.0389913969072767e+01 -3 1 0
5352 444 1 4.1499999999999998e-01 3.9771664977471590e+00 6.6808343559047234e+00 1.2135369228038506e+01 0 -4 0
5350 444 2 -8.2999999999999996e-01 4.2775859823348910e+00 7.5875882597402482e+00 1.2196830035296719e+01 0 -4 0
3654 444 1 4.1499999999999998e-01 9.8874139935976277e+00 2.6958409705725126e+00 1.5280856103488434e+01 1 -1 0
1383 444 1 4.1499999999999998e-01 4.5351011299654331e+00 6.8770671351216768e+00 1.4994502779046602e+01 0 -2 0
5351 444 1 4.1499999999999998e-01 4.4959149992779945e+00 7.7059331021243533e+00 1.3121253576563170e+01 0 -4 0
4688 444 1 4.1499999999999998e-01 4.9998256968333425e+00 4.2717253378592392e+00 1.6686953000431963e+01 3 3 0
4689 444 1 4.1499999999999998e-01 6.3694358148140422e+00 3.6859292956805105e+00 1.6416940361448205e+01 3 3 0
2342 444 1 4.1499999999999998e-01 1.1122292656519919e+01 3.4918213218892329e+00 1.7525970795457312e+01 2 0 0
3424 444 2 -8.2999999999999996e-01 4.3170367668069822e+00 5.8921414405956742e+00 1.7219823336763415e+01 3 0 0
3425 444 1 4.1499999999999998e-01 5.0475477093663281e+00 6.4674235825020645e+00 1.7447059088703721e+01 3 0 0
3647 444 1 4.1499999999999998e-01 1.4910383766294411e+00 5.6210928486458220e+00 1.6468600095098431e+01 -1 -2 0
1824 444 1 4.1499999999999998e-01 8.7211108731645890e+00 3.3080660949961196e+00 1.6908006423136953e+01 2 -2 0
1822 444 2 -8.2999999999999996e-01 7.9208099839432800e+00 3.6875321658804512e+00 1.7270988366210705e+01 2 -2 0
1046 444 1 4.1499999999999998e-01 8.3586640663676910e+00 5.4965303900801601e+00 1.7139603134479341e+01 1 3 0
356 444 1 4.1499999999999998e-01 1.9806846490583572e+00 2.7170047556769378e-01 1.6882044811796419e+01 4 5 0
4719 444 1 4.1499999999999998e-01 6.8233565108583685e+00 1.3662547455600202e-01 2.1552656111028433e+01 -2 -3 0
4718 444 1 4.1499999999999998e-01 7.6273388470917700e+00 1.3834350126820665e+00 2.1854275463520661e+01 -2 -3 0
4717 444 2 -8.2999999999999996e-01 6.9125336832339048e+00 1.0575603093540866e+00 2.1307382306638768e+01 -2 -3 0
3426 444 1 4.1499999999999998e-01 3.9235630761136853e+00 5.6602042011916840e+00 1.8061022157414982e+01 3 0 0
1497 444 1 4.1499999999999998e-01 5.6699005651995149e+00 2.1727146657211542e+00 2.1049947902694687e+01 4 -2 0
5324 444 1 4.1499999999999998e-01 8.5041385385184975e-01 3.7487020627480094e-01 2.0758945910483888e+01 -3 -1 0
165 444 1 4.1499999999999998e-01 1.7931950373030954e+00 4.9360795203397112e+00 2.0209400859670428e+01 -4 1 0
784 444 2 -8.2999999999999996e-01 7.0258198930596159e+00 1.3489027092475936e+00 1.8564977387071973e+01 0 -3 0
796 444 2 -8.2999999999999996e-01 2.0154799155217717e-01 7.4476241553167375e+00 1.8674839309160991e+01 -1 -3 0
204 444 1 4.1499999999999998e-01 5.5091262890833557e+00 4.5384125027630668e+00 2.1238130810294106e+01 0 -1 0
1045 444 2 -8.2999999999999996e-01 8.7209039664913597e+00 6.3825227560469111e+00 1.7133906620493551e+01 1 3 0
2943 444 1 4.1499999999999998e-01 2.4565049064785947e+00 2.1713427929467137e+00 1.9379985863209864e+01 0 -3 0
2942 444 1 4.1499999999999998e-01 3.1515709560823555e+00 2.2160535430503323e+00 1.8035820918907266e+01 0 -3 0
2941 444 2 -8.2999999999999996e-01 3.1728131944959874e+00 2.6005815186750207e+00 1.8912130727427400e+01 0 -3 0
3572 444 1 4.1499999999999998e-01 2.1687120166047960e+00 2.1852415434954153e+00 2.1900111612510766e+01 -4 4 0
1495 444 2 -8.2999999999999996e-01 4.9616012715465105e+00 2.7871606490261969e+00 2.0857593739773783e+01 4 -2 0
3839 444 1 4.1499999999999998e-01 4.4422829457278388e+00 5.2248785593647114e+00 1.9820713037677514e+01 0 3 0
3838 444 2 -8.2999999999999996e-01 3.5558989644209578e+00 5.0895485354960162e+00 1.9485688947097621e+01 0 3 0
1496 444 1 4.1499999999999998e-01 4.5403034856909761e+00 2.4305533092935598e+00 2.0075563536180866e+01 4 -2 0
3840 444 1 4.1499999999999998e-01 3.5179102778044369e+00 4.1560083889891768e+00 1.9277622785671966e+01 0 3 0
3190 444 2 -8.2999999999999996e-01 9.1175721882599472e+00 2.9183613407879996e+00 1.9810374363365593e+01 -4 6 0
3191 444 1 4.1499999999999998e-01 8.3701518481131441e+00 3.4559763344154315e+00 1.9548525203574261e+01 -4 6 0
3192 444 1 4.1499999999999998e-01 9.8646872655897422e+00 3.3089749322046837e+00 1.9357083082286785e+01 -4 6 0
1823 444 1 4.1499999999999998e-01 7.4439360316365590e+00 2.9407537139786175e+00 1.7633127960245005e+01 2 -2 0
203 444 1 4.1499999999999998e-01 5.0052092060536850e+00 5.8767425959325630e+00 2.1734956786040090e+01 0 -1 0
163 444 2 -8.2999999999999996e-01 9.2524200743548191e-01 5.3192190817607408e+00 2.0336262675200874e+01 -4 1 0
1047 444 1 4.1499999999999998e-01 9.6477489874995879e+00 6.2615285711406488e+00 1.6927627765920814e+01 1 3 0
164 444 1 4.1499999999999998e-01 8.1543012148317962e-01 5.3553956493626407e+00 2.1286455338425284e+01 -4 1 0
2446 444 2 -8.2999999999999996e-01 7.5727047840480228e+00 7.3216595187214688e+00 2.1881850991116551e+01 1 -1 0
1347 444 1 4.1499999999999998e-01 9.8247727773753759e+00 5.0231736127638360e+00 2.2519415279589065e+01 2 1 0
1345 444 2 -8.2999999999999996e-01 9.7333628875739375e+00 5.8584162564034594e+00 2.2977941120226568e+01 2 1 0
786 444 1 4.1499999999999998e-01 7.7058515555574854e+00 6.8257135404535973e-01 1.8466026299281353e+01 0 -3 0
2447 444 1 4.1499999999999998e-01 6.9437006910969812e+00 6.6041758384333358e+00 2.1805666173028634e+01 1 -1 0
202 444 2 -8.2999999999999996e-01 5.6345884938344737e+00 5.4813786888595812e+00 2.1131796948823919e+01 0 -1 0
1848 444 1 4.1499999999999998e-01 9.4866356125014430e+00 8.6477807259080874e-01 2.2284366762218557e+01 1 0 0
1346 444 1 4.1499999999999998e-01 9.1420765508216650e+00 6.3712332852212015e+00 2.2426913485298712e+01 2 1 0
4756 444 2 -8.2999999999999996e-01 3.8758286082702491e+00 6.4723415586045174e+00 2.3153182641183719e+01 3 -1 0
3571 444 2 -8.2999999999999996e-01 2.8211626389626310e+00 2.6026195657572742e+00 2.2462548885550323e+01 -4 4 0
4758 444 1 4.1499999999999998e-01 3.5865862809029676e+00 5.6206348550498442e+00 2.3480545523123887e+01 3 -1 0
1846 444 2 -8.2999999999999996e-01 9.2773166817678714e+00 1.7603221034986800e+00 2.2549731670682782e+01 1 0 0
5325 444 1 4.1499999999999998e-01 3.8290120123167187e-01 1.6581017305468355e+00 2.1412127652414519e+01 -3 -1 0
3330 444 1 4.1499999999999998e-01 7.2103965025912986e+00 7.2050398993356755e+00 1.8025101813352581e+01 0 0 0
4598 444 1 4.1499999999999998e-01 2.6580629971288761e+00 3.6536529174681496e+00 2.4022717851715061e+01 3 0 0
1847 444 1 4.1499999999999998e-01 9.8865456008001349e+00 2.3064433236717181e+00 2.2052917985146607e+01 1 0 0
3573 444 1 4.1499999999999998e-01 3.5582816909635078e+00 2.7857306414309715e+00 2.1880004673627067e+01 -4 4 0
4757 444 1 4.1499999999999998e-01 4.1442458599571514e+00 6.9520842530447018e+00 2.3936783949378917e+01 3 -1 0
2376 444 1 4.1499999999999998e-01 1.2475547302315180e+00 5.0360479276702064e+00 2.3296471109691662e+01 5 1 0
785 444 1 4.1499999999999998e-01 6.9493668029856046e+00 1.4751797305836676e+00 1.9510726243248939e+01 0 -3 0
665 444 1 4.1499999999999998e-01 2.7644403846915591e+00 8.2313463881669457e-01 2.3445681733158722e+01 1 4 0
5323 444 2 -8.2999999999999996e-01 1.1320418874427700e+00 1.2666790451332206e+00 2.0962896224489779e+01 -3 -1 0
355 444 2 -8.2999999999999996e-01 2.8278465337866958e+00 6.0847643220506220e-01 1.7173816251650859e+01 4 5 0
2374 444 2 -8.2999999999999996e-01 4.3248391285382010e-01 5.0827178427411015e+00 2.2796757812754535e+01 5 1 0
797 444 1 4.1499999999999998e-01 5.4370601795326401e-01 6.8084144985251314e+00 1.9299796772765642e+01 -1 -3 0
2341 444 2 -8.2999999999999996e-01 1.1036246394973432e+01 3.8931506179536832e+00 1.8390703542394597e+01 2 0 0
3328 444 2 -8.2999999999999996e-01 6.3325877361566132e+00 7.5136807947494422e+00 1.7800547966319893e+01 0 0 0
2420 444 1 4.1499999999999998e-01 1.1408636779544844e+01 3.6915407460027168e+00 2.0682412217116301e+01 3 0 0
2343 444 1 4.1499999999999998e-01 1.1290487722128434e+01 4.8063522374051511e+00 1.8257827400182567e+01 2 0 0
2448 444 1 4.1499999999999998e-01 7.6514582991426829e+00 7.6672009286648732e+00 2.0992676469413205e+01 1 -1 0
2375 444 1 4.1499999999999998e-01 5.0750480932300945e-02 5.9265590884326365e+00 2.3038508538094778e+01 5 1 0
666 444 1 4.1499999999999998e-01 3.7924675377013037e+00 7.5710194707482970e-02 2.4268124688081446e+01 1 4 0
1789 444 2 -8.2999999999999996e-01 2.8468423844498353e-01 5.4157620902668562e+00 2.9082391952113721e+01 1 3 0
3451 444 2 -8.2999999999999996e-01 9.7453055196608740e-01 2.6892012303119652e+00 2.9611641213600883e+01 -5 0 0
4455 444 1 4.1499999999999998e-01 8.2638365909962292e+00 3.7765399677908063e-01 2.8170030822461062e+01 4 5 0
660 444 1 4.1499999999999998e-01 3.5425176395909930e-01 7.3395823340224062e+00 3.1398463093176673e+01 0 2 0
3453 444 1 4.1499999999999998e-01 1.0438741680750174e+00 3.6347505144263614e+00 2.9743399287811645e+01 -5 0 0
2847 444 1 4.1499999999999998e-01 8.0066649544876469e+00 5.9346599359768226e-01 3.0698096757797309e+01 -1 -1 0
2277 444 1 4.1499999999999998e-01 1.0008737002815259e+01 1.0988122736438573e+00 2.9150121728572028e+01 -1 2 0
2408 444 1 4.1499999999999998e-01 8.8576627124195948e+00 4.7005413954676394e+00 2.9626816520096870e+01 2 -2 0
4905 444 1 4.1499999999999998e-01 9.7430606890633253e+00 5.7845451132064358e+00 2.4635422356135891e+01 0 -3 0
2281 444 2 -8.2999999999999996e-01 8.0379280202738155e+00 1.2145348661031090e+00 2.5304842267117586e+01 3 0 0
2283 444 1 4.1499999999999998e-01 8.4390368546899079e+00 1.6252836752896580e+00 2.4538924903822942e+01 3 0 0
4903 444 2 -8.2999999999999996e-01 9.5717075314251563e+00 5.9352851640006072e+00 2.5565017686354928e+01 0 -3 0
4646 444 1 4.1499999999999998e-01 5.9686903776452356e+00 2.3297745847753812e-01 2.8414950297337104e+01 2 1 0
4904 444 1 4.1499999999999998e-01 1.0301510943575362e+01 6.4808780741589391e+00 2.5858185226254168e+01 0 -3 0
4645 444 2 -8.2999999999999996e-01 5.2632935354808259e+00 7.2946148139102773e-01 2.8829861288900517e+01 2 1 0
965 444 1 4.1499999999999998e-01 1.9479803643016875e+00 5.2380444964492749e+00 2.9601018833489700e+01 -1 -1 0
2303 444 1 4.1499999999999998e-01 4.6156059452860028e+00 3.7697289263304485e+00 3.1112865353851458e+01 4 5 0
5202 444 1 4.1499999999999998e-01 8.9285125086136201e+00 4.0111750230698737e+00 3.2351232701219011e+01 0 -1 0
4599 444 1 4.1499999999999998e-01 3.0510142741244559e+00 4.0679733416724000e+00 2.5424796028581174e+01 3 0 0
5200 444 2 -8.2999999999999996e-01 9.7857133926751274e+00 4.4367782569271750e+00 3.2333867166292556e+01 0 -1 0
3557 444 1 4.1499999999999998e-01 4.4790753757836210e+00 6.1683651211332631e+00 2.7811978048063271e+01 1 -1 0
2276 444 1 4.1499999999999998e-01 9.0275184688549164e+00 2.1763681599208979e+00 2.9559974152303674e+01 -1 2 0
5016 444 1 4.1499999999999998e-01 1.1103856485727505e+01 9.3591972662238909e-01 2.5294767158008582e+01 -2 1 0
4597 444 2 -8.2999999999999996e-01 2.7050184403592237e+00 4.4140918652016632e+00 2.4602165598756827e+01 3 0 0
2794 444 2 -8.2999999999999996e-01 7.5348934534487544e+00 2.8633340198137400e+00 3.2300007576900526e+01 -3 -1 0
100 444 2 -8.2999999999999996e-01 2.4551477471527150e+00 1.2120685033566945e+00 3.1778230889616751e+01 0 -1 0
2216 444 1 4.1499999999999998e-01 9.3591345528590288e+00 6.1236230846392958e+00 3.1949045705649532e+01 0 -2 0
3586 444 2 -8.2999999999999996e-01 5.4213879473069646e+00 4.5596114574853580e-01 2.4969807860449972e+01 0 2 0
5014 444 2 -8.2999999999999996e-01 1.1046476774463660e+01 1.8003656162658717e+00 2.5701796373089714e+01 -2 1 0
2796 444 1 4.1499999999999998e-01 7.5994591461018839e+00 1.9690561159659454e+00 3.1964849552560402e+01 -3 -1 0
2795 444 1 4.1499999999999998e-01 6.7387846341615250e+00 3.2127915576704256e+00 3.1899604658631727e+01 -3 -1 0
4595 444 1 4.1499999999999998e-01 4.3034440767238404e+00 6.7832033271567820e+00 3.1109910210497233e+01 3 -4 0
3556 444 2 -8.2999999999999996e-01 3.7313444521365651e+00 6.7653923427187728e+00 2.7785731768527079e+01 1 -1 0
3074 444 1 4.1499999999999998e-01 1.9855163928552926e+00 5.9097617582202275e+00 2.5266371272806282e+01 -2 -2 0
2282 444 1 4.1499999999999998e-01 8.7690323081947934e+00 8.0665245004585751e-01 2.5768900992392769e+01 3 0 0
3588 444 1 4.1499999999999998e-01 6.2821307662473256e+00 8.7357037272152815e-01 2.4938884514066000e+01 0 2 0
4647 444 1 4.1499999999999998e-01 5.7124435588378715e+00 1.3575244308732093e+00 2.9395576083133868e+01 2 1 0
1449 444 1 4.1499999999999998e-01 9.5999186847135114e+00 4.3523968558409152e+00 2.6515910629825701e+01 -2 -1 0
2302 444 2 -8.2999999999999996e-01 3.8116802278430471e+00 3.7517147804697584e+00 3.1632106040143380e+01 4 5 0
1447 444 2 -8.2999999999999996e-01 9.6416762034474264e+00 3.5602770578942216e+00 2.7051667233124121e+01 -2 -1 0
2407 444 2 -8.2999999999999996e-01 8.4334398960045078e+00 3.8601385483904131e+00 2.9453640571568659e+01 2 -2 0
1959 444 1 4.1499999999999998e-01 6.4479372992987631e+00 4.9895479813732919e+00 2.6832361936109308e+01 -1 0 0
3073 444 2 -8.2999999999999996e-01 1.3166953026320947e+00 6.5742999162081972e+00 2.5431597935201587e+01 -2 -2 0
1958 444 1 4.1499999999999998e-01 5.0729288460089590e+00 4.3585195627656059e+00 2.6777132249829268e+01 -1 0 0
3075 444 1 4.1499999999999998e-01 1.7354212130039801e+00 7.1924794959289695e+00 2.6030559171959904e+01 -2 -2 0
263 444 1 4.1499999999999998e-01 2.3996583414232329e+00 2.4683933462304362e+00 2.8560262903884666e+01 -1 0 0
262 444 2 -8.2999999999999996e-01 3.1731403803194564e+00 2.3597373116613474e+00 2.8006952737584694e+01 -1 0 0
3552 444 1 4.1499999999999998e-01 4.6450306156077437e+00 1.9291091448332520e+00 2.5570769079989397e+01 -1 1 0
1957 444 2 -8.2999999999999996e-01 5.6598950531542895e+00 4.8448515071322200e+00 2.7356083763101125e+01 -1 0 0
264 444 1 4.1499999999999998e-01 3.7295000049824893e+00 1.7483776119778922e+00 2.8489587446270065e+01 -1 0 0
3551 444 1 4.1499999999999998e-01 3.8908336728460862e+00 2.6020966203653759e+00 2.6697787382292631e+01 -1 1 0
3550 444 2 -8.2999999999999996e-01 4.4318868294228055e+00 2.7900036907149661e+00 2.5930855545811557e+01 -1 1 0
2275 444 2 -8.2999999999999996e-01 9.0730470420940765e+00 1.2690255996462225e+00 2.9258495324370031e+01 -1 2 0
2845 444 2 -8.2999999999999996e-01 7.2400257780738047e+00 3.2103188643584080e-01 3.1202354538014443e+01 -1 -1 0
1448 444 1 4.1499999999999998e-01 1.0006778155357511e+01 2.8949689372752059e+00 2.6468315904101548e+01 -2 -1 0
2945 444 1 4.1499999999999998e-01 7.5967375132554036e+00 7.2492969789700892e+00 3.2229160201540729e+01 1 1 0
1790 444 1 4.1499999999999998e-01 4.6331130054106495e-02 6.2648320885163189e+00 2.9454547610110598e+01 1 3 0
2215 444 2 -8.2999999999999996e-01 9.1443472753402162e+00 6.9841191503533047e+00 3.1588981470983523e+01 0 -2 0
2409 444 1 4.1499999999999998e-01 8.7359791925122270e+00 3.6142216211843001e+00 2.8579439941926420e+01 2 -2 0
966 444 1 4.1499999999999998e-01 3.1473129848851662e+00 6.0672453650050802e+00 2.9193682947755502e+01 -1 -1 0
374 444 1 4.1499999999999998e-01 5.5977810859346224e+00 4.0488999325697641e+00 2.9126146306491066e+01 2 -1 0
102 444 1 4.1499999999999998e-01 2.3782795221578916e+00 7.6967580891267473e-01 3.0932883681291823e+01 0 -1 0
373 444 2 -8.2999999999999996e-01 5.8121371935662136e+00 4.0576857652227947e+00 3.0058994748524597e+01 2 -1 0
375 444 1 4.1499999999999998e-01 6.7393229503283978e+00 4.2934799944638700e+00 3.0089971014097159e+01 2 -1 0
101 444 1 4.1499999999999998e-01 2.8529502601353882e+00 2.0577287496942689e+00 3.1571242987068764e+01 0 -1 0
3558 444 1 4.1499999999999998e-01 3.9205869122924235e+00 7.3550845328823877e+00 2.7055880891413825e+01 1 -1 0
2772 444 1 4.1499999999999998e-01 7.8081156903699158e+00 7.2373958550072688e+00 2.6468163492055098e+01 2 1 0
2304 444 1 4.1499999999999998e-01 3.2141338371310346e+00 4.3394102359458016e+00 3.1169737855802492e+01 4 5 0
964 444 2 -8.2999999999999996e-01 2.7778367065478240e+00 5.5820891103233858e+00 2.9931478724355561e+01 -1 -1 0
2217 444 1 4.1499999999999998e-01 9.8733651955066186e+00 7.5444128453088286e+00 3.1855133531420279e+01 0 -2 0
5201 444 1 4.1499999999999998e-01 1.0244811272171944e+01 4.0220551397043200e+00 3.1603479405137943e+01 0 -1 0
658 444 2 -8.2999999999999996e-01 6.1755904912153825e-01 7.4147042645947181e+00 3.2315664377382326e+01 0 2 0
4596 444 1 4.1499999999999998e-01 5.3241062592819990e+00 7.4909437905729330e+00 3.1975500973492291e+01 3 -4 0
4594 444 2 -8.2999999999999996e-01 4.6085961245944365e+00 7.6549663746664809e+00 3.1361193453721917e+01 3 -4 0
3452 444 1 4.1499999999999998e-01 3.4836929378186321e-01 2.3997099668797364e+00 3.0275229215271931e+01 -5 0 0
269 444 1 4.1499999999999998e-01 1.1244132867367790e+01 3.0302028202511422e-01 3.0182829081138600e+01 1 1 0
1791 444 1 4.1499999999999998e-01 8.5220097833965752e-02 5.4979728390416067e+00 2.8149821672372710e+01 1 3 0
4751 444 1 4.1499999999999998e-01 1.1387345341754369e+01 4.8287302615288974e+00 2.9859153334197671e+01 0 1 0
1100 444 1 4.1499999999999998e-01 2.8677469892246965e-01 6.0740311253009489e+00 3.3482039765761641e+01 -1 -1 0
2559 444 1 4.1499999999999998e-01 1.1162712219053933e+01 4.4782554471006488e+00 3.5252450991422563e+01 0 1 0
1726 444 2 -8.2999999999999996e-01 8.1700614058860968e+00 4.5620024584230370e+00 3.6679568363676367e+01 -3 -2 0
4088 444 1 4.1499999999999998e-01 5.2408544569859190e+00 6.7483126250557668e-01 3.4602191313582139e+01 -4 2 0