LAMMPS data file via write_data, version 11 Aug 2017, timestep = 500000

7157 atoms
4 atom types
4000 bonds
1 bond types
2000 angles
1 angle types

0.0000000000000000e+00 4.5679949999999998e+01 xlo xhi
0.0000000000000000e+00 4.6885919999999999e+01 ylo yhi
0.0000000000000000e+00 6.5000000000000000e+01 zlo zhi

Masses

1 1.0079
2 15.9994
3 18.9984
4 107.868

Bond Coeffs # harmonic

1 450 0.9572

Angle Coeffs # harmonic

1 55 104.52

Atoms # full

6006 444 4 0.0000000000000000e+00 1.6907200000000000e+00 0.0000000000000000e+00 0.0000000000000000e+00 0 0 0
6007 444 4 0.0000000000000000e+00 4.2285000000000004e+00 1.4651900000000000e+00 0.0000000000000000e+00 0 0 0
6008 444 4 1.7360000000000000e-02 1.6907700000000001e+00 0.0000000000000000e+00 7.1781499999999996e+00 0 0 0
6009 444 4 1.7360000000000000e-02 4.2285500000000003e+00 1.4651900000000000e+00 7.1781499999999996e+00 0 0 0
6010 444 4 0.0000000000000000e+00 2.5366499999999998e+00 1.4651900000000000e+00 2.3926400000000001e+00 0 0 0
6011 444 4 0.0000000000000000e+00 5.0744199999999999e+00 0.0000000000000000e+00 2.3926400000000001e+00 0 0 0
6012 444 4 0.0000000000000000e+00 8.4509000000000001e-01 1.4651900000000000e+00 4.7824200000000001e+00 0 0 0
6013 444 4 0.0000000000000000e+00 3.3828600000000000e+00 0.0000000000000000e+00 4.7824499999999999e+00 0 0 0
6014 444 4 0.0000000000000000e+00 1.6907200000000000e+00 2.9303699999999999e+00 0.0000000000000000e+00 0 0 0
6015 444 4 0.0000000000000000e+00 4.2285000000000004e+00 4.3955599999999997e+00 0.0000000000000000e+00 0 0 0
6016 444 4 1.7360000000000000e-02 1.6907700000000001e+00 2.9303699999999999e+00 7.1781899999999998e+00 0 0 0
6017 444 4 1.7360000000000000e-02 4.2285500000000003e+00 4.3955599999999997e+00 7.1781600000000001e+00 0 0 0
6018 444 4 0.0000000000000000e+00 2.5366499999999998e+00 4.3955599999999997e+00 2.3926400000000001e+00 0 0 0
6019 444 4 0.0000000000000000e+00 5.0744199999999999e+00 2.9303699999999999e+00 2.3926400000000001e+00 0 0 0
6020 444 4 0.0000000000000000e+00 8.4509000000000001e-01 4.3955599999999997e+00 4.7824499999999999e+00 0 0 0
6021 444 4 0.0000000000000000e+00 3.3828700000000000e+00 2.9303699999999999e+00 4.7824400000000002e+00 0 0 0
6022 444 4 0.0000000000000000e+00 1.6907200000000000e+00 5.8607399999999998e+00 0.0000000000000000e+00 0 0 0
6023 444 4 0.0000000000000000e+00 4.2285000000000004e+00 7.3259299999999996e+00 0.0000000000000000e+00 0 0 0
6024 444 4 1.7360000000000000e-02 1.6907700000000001e+00 5.8607399999999998e+00 7.1781499999999996e+00 0 0 0
6025 444 4 1.7360000000000000e-02 4.2285500000000003e+00 7.3259299999999996e+00 7.1781499999999996e+00 0 0 0
6026 444 4 0.0000000000000000e+00 2.5366499999999998e+00 7.3259299999999996e+00 2.3926400000000001e+00 0 0 0
6027 444 4 0.0000000000000000e+00 5.0744199999999999e+00 5.8607399999999998e+00 2.3926400000000001e+00 0 0 0
6028 444 4 0.0000000000000000e+00 8.4509000000000001e-01 7.3259299999999996e+00 4.7824200000000001e+00 0 0 0
6029 444 4 0.0000000000000000e+00 3.3828600000000000e+00 5.8607399999999998e+00 4.7824499999999999e+00 0 0 0
6134 444 4 0.0000000000000000e+00 6.7662699999999996e+00 0.0000000000000000e+00 0.0000000000000000e+00 0 0 0
6136 444 4 1.7360000000000000e-02 6.7663200000000003e+00 0.0000000000000000e+00 7.1781499999999996e+00 0 0 0
6138 444 4 0.0000000000000000e+00 7.6121999999999996e+00 1.4651900000000000e+00 2.3926400000000001e+00 0 0 0
6140 444 4 0.0000000000000000e+00 5.9206399999999997e+00 1.4651900000000000e+00 4.7824200000000001e+00 0 0 0
6142 444 4 0.0000000000000000e+00 6.7662699999999996e+00 2.9303699999999999e+00 0.0000000000000000e+00 0 0 0
6144 444 4 1.7360000000000000e-02 6.7663200000000003e+00 2.9303699999999999e+00 7.1781899999999998e+00 0 0 0
6146 444 4 0.0000000000000000e+00 7.6121999999999996e+00 4.3955599999999997e+00 2.3926400000000001e+00 0 0 0
6148 444 4 0.0000000000000000e+00 5.9206399999999997e+00 4.3955599999999997e+00 4.7824499999999999e+00 0 0 0
6150 444 4 0.0000000000000000e+00 6.7662699999999996e+00 5.8607399999999998e+00 0.0000000000000000e+00 0 0 0
6152 444 4 1.7360000000000000e-02 6.7663200000000003e+00 5.8607399999999998e+00 7.1781499999999996e+00 0 0 0
6154 444 4 0.0000000000000000e+00 7.6121999999999996e+00 7.3259299999999996e+00 2.3926400000000001e+00 0 0 0
6156 444 4 0.0000000000000000e+00 5.9206399999999997e+00 7.3259299999999996e+00 4.7824200000000001e+00 0 0 0
6135 444 4 0.0000000000000000e+00 9.3040500000000002e+00 1.4651900000000000e+00 0.0000000000000000e+00 0 0 0
6137 444 4 1.7360000000000000e-02 9.3041000000000000e+00 1.4651900000000000e+00 7.1781499999999996e+00 0 0 0
6139 444 4 0.0000000000000000e+00 1.0149970000000000e+01 0.0000000000000000e+00 2.3926400000000001e+00 0 0 0
6141 444 4 0.0000000000000000e+00 8.4584100000000007e+00 0.0000000000000000e+00 4.7824499999999999e+00 0 0 0
6143 444 4 0.0000000000000000e+00 9.3040500000000002e+00 4.3955599999999997e+00 0.0000000000000000e+00 0 0 0
6145 444 4 1.7360000000000000e-02 9.3041000000000000e+00 4.3955599999999997e+00 7.1781600000000001e+00 0 0 0
6147 444 4 0.0000000000000000e+00 1.0149970000000000e+01 2.9303699999999999e+00 2.3926400000000001e+00 0 0 0
6149 444 4 0.0000000000000000e+00 8.4584200000000003e+00 2.9303699999999999e+00 4.7824400000000002e+00 0 0 0
6151 444 4 0.0000000000000000e+00 9.3040500000000002e+00 7.3259299999999996e+00 0.0000000000000000e+00 0 0 0
6153 444 4 1.7360000000000000e-02 9.3041000000000000e+00 7.3259299999999996e+00 7.1781499999999996e+00 0 0 0
6155 444 4 0.0000000000000000e+00 1.0149970000000000e+01 5.8607399999999998e+00 2.3926400000000001e+00 0 0 0
6157 444 4 0.0000000000000000e+00 8.4584100000000007e+00 5.8607399999999998e+00 4.7824499999999999e+00 0 0 0
6268 444 4 0.0000000000000000e+00 1.0996190000000000e+01 1.4651900000000000e+00 4.7824200000000001e+00 0 0 0
6276 444 4 0.0000000000000000e+00 1.0996190000000000e+01 4.3955599999999997e+00 4.7824499999999999e+00 0 0 0
6284 444 4 0.0000000000000000e+00 1.0996190000000000e+01 7.3259299999999996e+00 4.7824200000000001e+00 0 0 0
5610 444 1 4.1499999999999998e-01 6.9260091210984545e+00 4.7081128681007893e+00 9.7520990300928521e+00 -2 -2 0
3051 444 1 4.1499999999999998e-01 8.9212403998794993e+00 6.2087074978595904e+00 1.2062291922553223e+01 0 2 0
41 444 1 4.1499999999999998e-01 4.8025724040313404e+00 3.9703488794419086e+00 1.0213814759648219e+01 2 2 0
42 444 1 4.1499999999999998e-01 3.3756447122897590e+00 4.3565152787620001e+00 1.0540384830044692e+01 2 2 0
40 444 2 -8.2999999999999996e-01 3.9753330719517930e+00 3.6104839931752486e+00 1.0533821414752900e+01 2 2 0
3034 444 2 -8.2999999999999996e-01 5.5973851310684113e+00 3.3283361830461362e+00 1.3247914680341864e+01 1 1 0
3035 444 1 4.1499999999999998e-01 6.5063936214474856e+00 3.4437494455958144e+00 1.2971120092031331e+01 1 1 0
2497 444 2 -8.2999999999999996e-01 3.4324973265022543e+00 1.3851989933704003e+00 1.2245895187293883e+01 1 4 0
2499 444 1 4.1499999999999998e-01 3.2355184977187048e+00 2.1432395514583780e+00 1.1695617341784484e+01 1 4 0
3036 444 1 4.1499999999999998e-01 5.1315996206359378e+00 3.0866303531602539e+00 1.2447381016781904e+01 1 1 0
5608 444 2 -8.2999999999999996e-01 6.0873354651031120e+00 5.0039354753791585e+00 1.0106144024468708e+01 -2 -2 0
3049 444 2 -8.2999999999999996e-01 8.2669514569480018e+00 6.5907017238695813e+00 1.2647286766562292e+01 0 2 0
5609 444 1 4.1499999999999998e-01 6.2165164937329802e+00 5.9358763239546377e+00 1.0282299933576882e+01 -2 -2 0
1631 444 1 4.1499999999999998e-01 1.0945300570881813e+01 5.5657891153923540e+00 1.0703030062132308e+01 2 0 0
1632 444 1 4.1499999999999998e-01 9.7413156394320133e+00 5.2480852994136100e+00 9.8419959332987723e+00 2 0 0
1630 444 2 -8.2999999999999996e-01 1.0058379610734242e+01 5.8645013735811453e+00 1.0502097060018730e+01 2 0 0
2954 444 1 4.1499999999999998e-01 2.7475841841385984e+00 6.5279646154033886e+00 1.0049183844160639e+01 2 4 0
2498 444 1 4.1499999999999998e-01 2.5879196303108061e+00 9.5176486647404601e-01 1.2368595029528732e+01 1 4 0
982 444 2 -8.2999999999999996e-01 5.0982732576735035e-01 6.4241784590888749e+00 1.2605689347811216e+01 0 0 0
3302 444 1 4.1499999999999998e-01 9.1567904891430540e+00 3.1971055068707557e+00 1.0342154671861014e+01 2 1 0
3303 444 1 4.1499999999999998e-01 7.7948877816740367e+00 2.6533502170273131e+00 9.9660607713215832e+00 2 1 0
3301 444 2 -8.2999999999999996e-01 8.3291740174779232e+00 3.4467925670074115e+00 9.9311311895532608e+00 2 1 0
2955 444 1 4.1499999999999998e-01 1.5053822742115022e+00 6.1498465285996984e+00 1.0827551725974381e+01 2 4 0
983 444 1 4.1499999999999998e-01 1.0589616475569841e+00 5.7862242593351887e+00 1.3061428639369344e+01 0 0 0
5507 444 1 4.1499999999999998e-01 8.3118994396810493e+00 2.4864728413965427e+00 1.5664894231069832e+01 5 4 0
5315 444 1 4.1499999999999998e-01 5.4320383093799975e+00 2.4488498609035276e+00 1.0142065174726945e+01 -1 -3 0
2953 444 2 -8.2999999999999996e-01 2.1895049699811580e+00 5.7817988003128429e+00 1.0268311735490277e+01 2 4 0
3374 444 1 4.1499999999999998e-01 3.3050075149411473e+00 7.6399998240444518e+00 1.3456346494698929e+01 2 2 0
5506 444 2 -8.2999999999999996e-01 8.4984924422883967e+00 3.4003704364706051e+00 1.5879850228306335e+01 5 4 0
3418 444 2 -8.2999999999999996e-01 6.0189391310266505e+00 7.8130365388251972e+00 1.0037608567235464e+01 -1 -2 0
1023 444 1 4.1499999999999998e-01 9.0701951469485635e+00 5.0831501120880880e+00 1.5099026833056410e+01 0 -2 0
5152 444 2 -8.2999999999999996e-01 9.4425251723532213e+00 5.4150541896089555e-01 1.4519351420784018e+01 0 -3 0
4592 444 1 4.1499999999999998e-01 1.0444689070027188e+01 1.5918761107138595e+00 1.4109551484238686e+01 -3 2 0
3254 444 1 4.1499999999999998e-01 2.2881061475980209e+00 4.2451721653500014e+00 1.3687353443999687e+01 3 3 0
3255 444 1 4.1499999999999998e-01 3.6267526374072663e+00 4.8776487916044067e+00 1.4003414297156846e+01 3 3 0
3253 444 2 -8.2999999999999996e-01 2.7414957989142685e+00 5.0879734832334602e+00 1.3706234372709915e+01 3 3 0
102 444 1 4.1499999999999998e-01 5.8191346555210002e+00 4.0404545285225488e+00 1.5620147256821948e+01 -4 0 0
1921 444 2 -8.2999999999999996e-01 1.1394000936539268e+00 2.7884948376972041e+00 1.3579998766085550e+01 2 3 0
1922 444 1 4.1499999999999998e-01 2.4911020936344036e-01 2.4369301505369885e+00 1.3584322160019052e+01 2 3 0
100 444 2 -8.2999999999999996e-01 5.0322863779546143e+00 4.0481481403995998e+00 1.6165163273469830e+01 -4 0 0
5154 444 1 4.1499999999999998e-01 8.9559995489174895e+00 2.4387944081678517e-01 1.5288080213682397e+01 0 -3 0
5314 444 2 -8.2999999999999996e-01 6.1134352974597865e+00 1.8420282360682179e+00 9.8527585732978071e+00 -1 -3 0
3326 444 1 4.1499999999999998e-01 7.4512900884137760e+00 8.2253221080780248e-01 1.0438579999192399e+01 4 0 0
5110 444 2 -8.2999999999999996e-01 4.4446629169059690e+00 1.3992595804284051e+00 1.4807795997549659e+01 0 1 0
4591 444 2 -8.2999999999999996e-01 1.0991225877923602e+01 2.1962909956851613e+00 1.3607344267604889e+01 -3 2 0
1923 444 1 4.1499999999999998e-01 1.5349784914600253e+00 2.4500318478311973e+00 1.4383237946198387e+01 2 3 0
5728 444 2 -8.2999999999999996e-01 1.0642066500659697e+01 2.5866606719429392e+00 1.1078485917919895e+01 0 0 0
5111 444 1 4.1499999999999998e-01 4.0483798488704581e+00 1.2078125803142683e+00 1.3957772687332927e+01 0 1 0
5334 444 1 4.1499999999999998e-01 7.6390263605935316e-01 4.0158367274454152e+00 1.0074498877504499e+01 4 -1 0
4593 444 1 4.1499999999999998e-01 1.0908360688251747e+01 3.0323640171832311e+00 1.4065980403575145e+01 -3 2 0
3325 444 2 -8.2999999999999996e-01 8.2099336860273837e+00 3.3838804260490146e-01 1.0764611412829332e+01 4 0 0
5112 444 1 4.1499999999999998e-01 4.7532105939096398e+00 2.3020941665961092e+00 1.4730855212991088e+01 0 1 0
1019 444 1 4.1499999999999998e-01 2.1918522872105246e+00 5.2153354086134778e+00 1.5612952756423301e+01 1 3 0
3050 444 1 4.1499999999999998e-01 7.6121140096668025e+00 6.9690234019279922e+00 1.2060522145562524e+01 0 2 0
1022 444 1 4.1499999999999998e-01 9.1267234151247081e+00 6.2681334489557159e+00 1.4158540661712495e+01 0 -2 0
1021 444 2 -8.2999999999999996e-01 9.4111450927442917e+00 5.9744189308944291e+00 1.5024027776920022e+01 0 -2 0
5333 444 1 4.1499999999999998e-01 2.0664534514456104e-01 3.8838093934856790e+00 1.1475901140258216e+01 4 -1 0
2306 444 1 4.1499999999999998e-01 4.5305178283226271e+00 5.9324107435055646e+00 1.6159714978427743e+01 -4 1 0
599 444 1 4.1499999999999998e-01 1.9613903030753327e-01 4.1752255527929449e-01 1.1620930784043889e+01 -1 1 0
2305 444 2 -8.2999999999999996e-01 4.8458059741655743e+00 6.8360861929582519e+00 1.6173709212816309e+01 -4 1 0
799 444 2 -8.2999999999999996e-01 1.8400665240604617e+00 1.1724760633256426e+00 1.5792195848579981e+01 -1 4 0
801 444 1 4.1499999999999998e-01 2.7869354288959660e+00 1.1124586134568606e+00 1.5918963328407408e+01 -1 4 0
5153 444 1 4.1499999999999998e-01 9.0445502617429412e+00 7.1410960957259059e-02 1.3786644605053791e+01 0 -3 0
2064 444 1 4.1499999999999998e-01 1.1045083128889171e+01 8.9774351515860396e-01 1.0655257523780204e+01 -1 2 0
2537 444 1 4.1499999999999998e-01 7.9977139663526158e+00 7.7071363175623722e+00 1.6234857797686530e+01 2 -2 0
5730 444 1 4.1499999999999998e-01 1.0841222127070731e+01 2.5145149074299997e+00 1.2011954651001513e+01 0 0 0
5316 444 1 4.1499999999999998e-01 5.6334870615337405e+00 1.0949552681081882e+00 9.4953171321664538e+00 -1 -3 0
3486 444 1 4.1499999999999998e-01 3.9402425209537610e+00 2.5449773785986862e-01 1.0782485238773683e+01 2 5 0
5729 444 1 4.1499999999999998e-01 1.1162614904991358e+01 3.3320036440281697e+00 1.0778944509154570e+01 0 0 0
598 444 2 -8.2999999999999996e-01 1.0666226574202535e+00 2.8998967760884858e-01 1.1998059142877652e+01 -1 1 0
2808 444 1 4.1499999999999998e-01 1.0235164356561922e+01 7.7177749471808497e+00 1.0746304399126521e+01 -1 5 0
2538 444 1 4.1499999999999998e-01 6.5150391969285275e+00 7.5011745406468311e+00 1.6008692331204507e+01 2 -2 0
2062 444 2 -8.2999999999999996e-01 1.0852885082725511e+01 8.5010659930802035e-03 1.0357701354770077e+01 -1 2 0
5508 444 1 4.1499999999999998e-01 7.8972781522996529e+00 3.6061058314158094e+00 1.6595703709853808e+01 5 4 0
101 444 1 4.1499999999999998e-01 5.3051736531256894e+00 3.6390703395060475e+00 1.6986393937069415e+01 -4 0 0
1067 444 1 4.1499999999999998e-01 3.9928012199425211e-02 1.6086629624505604e+00 2.1247338380396201e+01 -1 3 0
5257 444 2 -8.2999999999999996e-01 1.8431467883321819e+00 8.9859611641506365e-01 1.8491850528020567e+01 1 1 0
3440 444 1 4.1499999999999998e-01 9.7007838481621782e+00 6.4992675211604318e+00 1.6658173146165808e+01 -1 1 0
2314 444 2 -8.2999999999999996e-01 6.2417188028473127e+00 2.6741955894177816e-01 2.0287491916697711e+01 -1 1 0
3439 444 2 -8.2999999999999996e-01 9.6239176603155379e+00 6.9108343913804644e+00 1.7518949642907689e+01 -1 1 0
5732 444 1 4.1499999999999998e-01 9.3905569533699254e+00 3.7381855967154093e-01 2.1579622694581548e+01 4 1 0
5226 444 1 4.1499999999999998e-01 1.3784175311179501e+00 3.4965092113539802e+00 1.9815951771245309e+01 1 0 0
5670 444 1 4.1499999999999998e-01 3.7186974578375875e-01 4.8746773448891743e+00 1.7432895769857431e+01 5 -1 0
1538 444 1 4.1499999999999998e-01 8.9108650581717193e+00 3.3318059349770315e+00 1.9295433407760893e+01 2 0 0
3280 444 2 -8.2999999999999996e-01 8.2730084377929796e+00 5.0349574098569034e+00 1.8989345080116507e+01 -1 1 0
800 444 1 4.1499999999999998e-01 1.4728352028705525e+00 1.0575019883183794e+00 1.6668640487459385e+01 -1 4 0
1018 444 2 -8.2999999999999996e-01 2.0480824161567432e+00 4.8841963902330958e+00 1.6499468051848829e+01 1 3 0
275 444 1 4.1499999999999998e-01 6.3046530192413135e+00 4.1541997294091617e+00 2.2747976621030066e+01 3 -1 0
6003 444 3 -1.0000000000000000e+00 6.6957933658477193e+00 2.9631084479786365e+00 1.7798294754294723e+01 0 0 0
1539 444 1 4.1499999999999998e-01 8.0756374345725241e+00 2.2561424181020397e+00 1.8634193657943822e+01 2 0 0
4779 444 1 4.1499999999999998e-01 6.2107837625921753e+00 3.9196832855788877e+00 1.9046040132889132e+01 -2 -1 0
3043 444 2 -8.2999999999999996e-01 7.6382620366899960e+00 3.0506924340900348e+00 2.2664606770117196e+01 -1 -1 0
3044 444 1 4.1499999999999998e-01 7.9993396939291852e+00 2.2442657552049989e+00 2.2296460983203271e+01 -1 -1 0
3282 444 1 4.1499999999999998e-01 7.6090582754470804e+00 4.6385985623121249e+00 1.8425162403287491e+01 -1 1 0
5666 444 1 4.1499999999999998e-01 9.6859778226623323e+00 4.6239752501490337e+00 2.2001864635909950e+01 2 -4 0
5252 444 1 4.1499999999999998e-01 1.0912649676481742e+01 5.7957276670755249e+00 1.9754977880296924e+01 3 5 0
67 444 2 -8.2999999999999996e-01 5.2901978281850743e+00 7.0523170351753750e+00 1.8934378517310257e+01 -4 2 0
140 444 1 4.1499999999999998e-01 6.3803367677983260e+00 1.9627330618222696e+00 2.3286948882964388e+01 -3 3 0
2307 444 1 4.1499999999999998e-01 4.8218901622582413e+00 7.0843207210101582e+00 1.7097851779059969e+01 -4 1 0
4647 444 1 4.1499999999999998e-01 4.0813253687293889e+00 4.1308794789346868e+00 1.9633332418321476e+01 -3 2 0
4645 444 2 -8.2999999999999996e-01 3.1483634341379556e+00 4.1099505018174698e+00 1.9420312827213891e+01 -3 2 0
3045 444 1 4.1499999999999998e-01 8.4057650172216611e+00 3.5777517879499237e+00 2.2886824385568559e+01 -1 -1 0
1537 444 2 -8.2999999999999996e-01 8.8318619616148997e+00 2.3819453867032441e+00 1.9207369012819672e+01 2 0 0
2862 444 1 4.1499999999999998e-01 7.3802163282957620e+00 1.4419616860977691e+00 1.7257595074155823e+01 -2 0 0
274 444 2 -8.2999999999999996e-01 5.5777303230164730e+00 4.7609335364030541e+00 2.2888298635078090e+01 3 -1 0
2860 444 2 -8.2999999999999996e-01 7.8166703186972404e+00 7.4443684078843153e-01 1.6768515443633589e+01 -2 0 0
3226 444 2 -8.2999999999999996e-01 7.0218905903245696e+00 6.7039165785962620e+00 2.1393430696300616e+01 4 2 0
139 444 2 -8.2999999999999996e-01 5.6710105496807826e+00 1.4477544732417063e+00 2.3671508239825641e+01 -3 3 0
4646 444 1 4.1499999999999998e-01 3.0725274980506248e+00 4.6335760424170145e+00 1.8622630340080605e+01 -3 2 0
1020 444 1 4.1499999999999998e-01 2.6921518963280566e+00 4.1834554096951075e+00 1.6601294406474100e+01 1 3 0
92 444 1 4.1499999999999998e-01 5.3719106593659136e+00 1.8765931314623647e+00 1.8274993483122472e+01 1 2 0
4777 444 2 -8.2999999999999996e-01 5.7457839926728536e+00 4.5083207290838629e+00 1.9640609806863161e+01 -2 -1 0
91 444 2 -8.2999999999999996e-01 4.6025693897029720e+00 1.5848191728758019e+00 1.8764088379525496e+01 1 2 0
3227 444 1 4.1499999999999998e-01 7.6566718714467115e+00 6.5982976757651128e+00 2.0684819753069316e+01 4 2 0
3228 444 1 4.1499999999999998e-01 7.4587686665777273e+00 7.2768925004246281e+00 2.2023565030363748e+01 4 2 0
5225 444 1 4.1499999999999998e-01 8.3329050689888629e-01 2.1410253472154190e+00 1.9419221193562581e+01 1 0 0
68 444 1 4.1499999999999998e-01 5.5582185680231220e+00 6.1589732859582718e+00 1.9149633992085796e+01 -4 2 0
4778 444 1 4.1499999999999998e-01 6.3053421931172133e+00 4.5577507364780523e+00 2.0415647306759823e+01 -2 -1 0
93 444 1 4.1499999999999998e-01 4.1531363709352851e+00 2.3935941639022111e+00 1.9009291985494006e+01 1 2 0
4163 444 1 4.1499999999999998e-01 1.0872883343732763e+01 7.5900657175302948e+00 2.1232924482791038e+01 1 -1 0
141 444 1 4.1499999999999998e-01 4.8895993630499133e+00 1.7177439133100469e+00 2.3189082697991651e+01 -3 3 0
2316 444 1 4.1499999999999998e-01 5.7581035900062032e+00 8.0881068370211306e-01 1.9663597825182720e+01 -1 1 0
1158 444 1 4.1499999999999998e-01 2.2758912504464579e+00 4.2345173280382714e-01 2.3214885717132166e+01 2 2 0
3391 444 2 -8.2999999999999996e-01 2.7497142706565478e+00 7.3398417195511918e+00 2.2722590406337364e+01 5 0 0
3281 444 1 4.1499999999999998e-01 8.4843804471027831e+00 5.8659725782304424e+00 1.8563941840146772e+01 -1 1 0
5397 444 1 4.1499999999999998e-01 1.0159382437030994e+01 1.9473271827706504e+00 1.6639126883422080e+01 0 2 0
5665 444 2 -8.2999999999999996e-01 9.4715712862649131e+00 4.9362669936390802e+00 2.2880918414333202e+01 2 -4 0
5667 444 1 4.1499999999999998e-01 1.0320012912428368e+01 5.1226261788126344e+00 2.3282974278327863e+01 2 -4 0
5731 444 2 -8.2999999999999996e-01 9.7433018691286470e+00 1.2612682349841176e+00 2.1514538782285939e+01 4 1 0
276 444 1 4.1499999999999998e-01 5.7631900540988212e+00 5.4966936657650587e+00 2.2304779740909197e+01 3 -1 0
5224 444 2 -8.2999999999999996e-01 6.3729168181689833e-01 2.9076001931279860e+00 1.9957904118108392e+01 1 0 0
5733 444 1 4.1499999999999998e-01 9.4116013008963417e+00 1.5907051515772348e+00 2.0679267634451264e+01 4 1 0
2864 444 1 4.1499999999999998e-01 2.7479388908800915e+00 5.4841430309312935e+00 2.3356265644274256e+01 -1 -2 0
2861 444 1 4.1499999999999998e-01 7.1819805926820885e+00 2.8061475408781768e-02 1.6754123165031793e+01 -2 0 0
5251 444 2 -8.2999999999999996e-01 1.1037443501265409e+01 5.5749937114306718e+00 2.0677981195589435e+01 3 5 0
5395 444 2 -8.2999999999999996e-01 1.0666595188786939e+01 1.4800853879135658e+00 1.7302943259478077e+01 0 2 0
1329 444 1 4.1499999999999998e-01 8.0086014131107817e+00 4.9817518868634654e+00 2.4075909741025431e+01 -2 0 0
5116 444 2 -8.2999999999999996e-01 2.6120568526032857e+00 2.0328883837425620e+00 2.3670283051437966e+01 -1 1 0
3441 444 1 4.1499999999999998e-01 1.0526991656821821e+01 7.0019246026764135e+00 1.7822909896189582e+01 -1 1 0
2865 444 1 4.1499999999999998e-01 3.9979188100546348e+00 4.6591864382575023e+00 2.3577381019136666e+01 -1 -2 0
5396 444 1 4.1499999999999998e-01 1.0201405786403594e+01 1.6478298534623825e+00 1.8122511717444539e+01 0 2 0
5117 444 1 4.1499999999999998e-01 2.6617158464609560e+00 2.9534934696225998e+00 2.3412885973938700e+01 -1 1 0
2863 444 2 -8.2999999999999996e-01 3.0780942612298259e+00 4.7234352427922577e+00 2.3834337763263317e+01 -1 -2 0
5259 444 1 4.1499999999999998e-01 2.6867376051988270e+00 1.1039022544676504e+00 1.8894885044728039e+01 1 1 0
4607 444 1 4.1499999999999998e-01 1.1163599895921964e+01 2.3129269812634581e+00 2.2605751988150775e+01 -1 4 0
3392 444 1 4.1499999999999998e-01 1.8396366042566734e+00 7.5217853985427716e+00 2.2956872918867340e+01 5 0 0
1586 444 1 4.1499999999999998e-01 8.5167197931297327e+00 7.5061931543697344e+00 2.3920792594467390e+01 0 1 0
128 444 1 4.1499999999999998e-01 2.5936273237017353e+00 7.7188554577541746e+00 2.0721717415246058e+01 2 0 0
69 444 1 4.1499999999999998e-01 5.7421521206981678e+00 7.5997657643556504e+00 1.9576460870869667e+01 -4 2 0
2224 444 2 -8.2999999999999996e-01 6.7139399106304731e-02 7.7578136851144865e+00 1.9200159526310269e+01 6 0 0
2225 444 1 4.1499999999999998e-01 9.7100609726470366e-01 7.7786994016402753e+00 1.8885801730848186e+01 6 0 0
5719 444 2 -8.2999999999999996e-01 6.1546037285387361e-03 1.1791530878580625e+00 3.0575839147416513e+01 1 1 0
5632 444 2 -8.2999999999999996e-01 1.0919636211791213e+01 7.5336832660168579e-02 2.4856564340006894e+01 2 4 0
3794 444 1 4.1499999999999998e-01 2.6047249933746381e+00 5.7055772414199716e-03 2.6288927621525961e+01 3 2 0
3615 444 1 4.1499999999999998e-01 5.1144449485974928e+00 1.1362347334601960e-01 2.9368339794706188e+01 1 1 0
3868 444 2 -8.2999999999999996e-01 8.4486631832860208e+00 1.6296638304256283e+00 2.5214672046113495e+01 1 2 0
1807 444 2 -8.2999999999999996e-01 3.3212186507651777e+00 7.0402145926560493e+00 2.8517090116736579e+01 -2 -1 0
2763 444 1 4.1499999999999998e-01 5.8196967443199741e+00 8.6739944215420930e-02 2.4855964122375216e+01 1 0 0
3453 444 1 4.1499999999999998e-01 9.9001038486532611e+00 6.7286680559928085e+00 3.1140997161559262e+01 1 -1 0
866 444 1 4.1499999999999998e-01 1.0667372193412324e-01 6.6598325725149632e+00 3.0804661568513968e+01 -1 1 0
1808 444 1 4.1499999999999998e-01 2.3964202131055039e+00 7.2645658902023662e+00 2.8413909343148273e+01 -2 -1 0
4898 444 1 4.1499999999999998e-01 6.4008931485479337e-01 6.6779401110750243e+00 2.7606712703579973e+01 -3 -3 0
3870 444 1 4.1499999999999998e-01 7.4943677857910016e+00 1.6258418905844634e+00 2.5289086664845275e+01 1 2 0
1171 444 2 -8.2999999999999996e-01 6.7208285427771646e+00 9.3831903354832380e-02 2.9584933499701645e+01 -3 1 0
4785 444 1 4.1499999999999998e-01 8.8096522537751110e+00 7.6089202790172052e+00 2.6197818028224340e+01 0 -4 0
5634 444 1 4.1499999999999998e-01 1.1329106919400738e+01 9.3358054380118483e-01 2.4747093707721692e+01 2 4 0
3451 444 2 -8.2999999999999996e-01 1.0360058288866702e+01 6.3519613041418861e+00 3.1891174462168660e+01 1 -1 0
2967 444 1 4.1499999999999998e-01 6.3456901059339821e-02 4.5327385046563302e+00 2.6609858248272428e+01 2 0 0
5720 444 1 4.1499999999999998e-01 9.0673856583520196e-01 1.0984924052819969e+00 3.0889963717252236e+01 1 1 0
3786 444 1 4.1499999999999998e-01 9.5796912866717214e+00 5.7045448688412206e+00 2.8410923309916598e+01 1 4 0
5084 444 1 4.1499999999999998e-01 3.1267391374429994e+00 9.1225371404082511e-01 3.0814694150194715e+01 -1 -4 0
3667 444 2 -8.2999999999999996e-01 1.1385740328543809e+01 3.3983673979867368e+00 3.0020708564450072e+01 2 0 0
3452 444 1 4.1499999999999998e-01 1.1272448246685286e+01 6.2921996436528671e+00 3.1607968007702670e+01 1 -1 0
1328 444 1 4.1499999999999998e-01 7.8968485577370746e+00 5.8144650938364331e+00 2.5335272745287668e+01 -2 0 0
5766 444 1 4.1499999999999998e-01 6.2910511982871675e+00 6.9632172589557637e+00 3.1766448012777584e+01 -2 3 0
5083 444 2 -8.2999999999999996e-01 2.4667961323164134e+00 8.1791154797215304e-01 3.1501575979035845e+01 -1 -4 0
1327 444 2 -8.2999999999999996e-01 7.6893916481061888e+00 4.9510977026041987e+00 2.4977795148207928e+01 -2 0 0
1809 444 1 4.1499999999999998e-01 3.5704878603168972e+00 6.6570369993382617e+00 2.7676095684005141e+01 -2 -1 0
3785 444 1 4.1499999999999998e-01 1.0452931648518717e+01 6.3884644280211473e+00 2.7380583341037198e+01 1 4 0
3669 444 1 4.1499999999999998e-01 1.0968540829802787e+01 4.0760137642784926e+00 2.9488757525453380e+01 2 0 0
1173 444 1 4.1499999999999998e-01 7.0484042169857108e+00 9.9052341867603233e-01 2.9654727451085108e+01 -3 1 0
5708 444 1 4.1499999999999998e-01 7.5686172547649395e+00 5.3607133737722545e+00 2.9145718098637222e+01 0 2 0
5764 444 2 -8.2999999999999996e-01 6.6018210543513813e+00 6.3887488365611258e+00 3.2466190801691965e+01 -2 3 0
3613 444 2 -8.2999999999999996e-01 4.1576867327979237e+00 1.0424176382846270e-01 2.9395863257742835e+01 1 1 0
1873 444 2 -8.2999999999999996e-01 8.4292590440492488e-01 5.2438041564595066e+00 3.0911193762189985e+01 3 2 0
3869 444 1 4.1499999999999998e-01 8.7280836704613680e+00 2.3729424352342670e+00 2.5749174981590613e+01 1 2 0
1875 444 1 4.1499999999999998e-01 7.0762833125694469e-01 4.8622709772382802e+00 3.1778580123354988e+01 3 2 0
5707 444 2 -8.2999999999999996e-01 8.3355653866276178e+00 5.5993992539222095e+00 2.9666344162862366e+01 0 2 0
1496 444 1 4.1499999999999998e-01 3.5256224481672094e+00 5.7268350339124741e+00 2.5547747335355648e+01 -3 1 0
4222 444 2 -8.2999999999999996e-01 6.3134693812331939e+00 4.9951247903913982e+00 2.8156856598016319e+01 -3 1 0
3784 444 2 -8.2999999999999996e-01 1.0348841626965495e+01 5.5655854614820326e+00 2.7858356691542124e+01 1 4 0
5317 444 2 -8.2999999999999996e-01 5.8567843429658257e+00 3.4237187697637914e+00 2.5851817709034687e+01 -4 3 0
5118 444 1 4.1499999999999998e-01 2.2798196558182759e+00 2.0522164607446003e+00 2.4567767052715052e+01 -1 1 0
1060 444 2 -8.2999999999999996e-01 4.9325271361641150e+00 2.7405802440866474e+00 2.8489097899091536e+01 3 0 0
5633 444 1 4.1499999999999998e-01 9.9796257254797176e+00 2.5591791281654308e-01 2.4854653858867906e+01 2 4 0
1061 444 1 4.1499999999999998e-01 4.5433509950030011e+00 1.8962269851231517e+00 2.8716786356972371e+01 3 0 0
1497 444 1 4.1499999999999998e-01 4.7238801785385602e+00 4.8526457353178589e+00 2.5850842566591734e+01 -3 1 0
1495 444 2 -8.2999999999999996e-01 4.2648758928775283e+00 5.6378191281587080e+00 2.6149256467031229e+01 -3 1 0
5319 444 1 4.1499999999999998e-01 6.4043412427562920e+00 4.1862907966374410e+00 2.5665009696374398e+01 -4 3 0
4224 444 1 4.1499999999999998e-01 5.5192739572612339e+00 5.3757612167855315e+00 2.7781887256540472e+01 -3 1 0
4223 444 1 4.1499999999999998e-01 6.0548951155883906e+00 4.1121116072327704e+00 2.8420788698290224e+01 -3 1 0
4026 444 1 4.1499999999999998e-01 2.5559505401749618e+00 3.1473832358188951e+00 2.6926849841701376e+01 0 0 0
4024 444 2 -8.2999999999999996e-01 2.2509610131481574e+00 2.3336603593326912e+00 2.6525516680990965e+01 0 0 0
5318 444 1 4.1499999999999998e-01 5.9358451608197518e+00 2.8746228030332421e+00 2.5071769731001567e+01 -4 3 0
4025 444 1 4.1499999999999998e-01 1.3036777314732120e+00 2.4456749265045068e+00 2.6445899301743840e+01 0 0 0
2901 444 1 4.1499999999999998e-01 8.1306013273157767e+00 7.5844217871846427e+00 2.9171490960226425e+01 -1 1 0
2461 444 2 -8.2999999999999996e-01 9.1522356170462977e+00 3.4145492328060092e+00 2.7097545183765302e+01 0 2 0
2463 444 1 4.1499999999999998e-01 9.6465839775657276e+00 4.2172857649441964e+00 2.7263272747768173e+01 0 2 0
2462 444 1 4.1499999999999998e-01 8.2896436472264927e+00 3.7180140609889545e+00 2.6814568066393495e+01 0 2 0
1062 444 1 4.1499999999999998e-01 4.9574316320139005e+00 2.7431314525083077e+00 2.7532224946853162e+01 3 0 0
1874 444 1 4.1499999999999998e-01 1.5792784870486147e+00 4.7535587824069134e+00 3.0545574318362210e+01 3 2 0
2308 444 2 -8.2999999999999996e-01 8.7848065320539721e+00 2.1752117681910428e+00 2.9673953799046359e+01 -1 6 0
5709 444 1 4.1499999999999998e-01 8.1882240874086492e+00 5.1829875837035315e+00 3.0515534187235858e+01 0 2 0
2309 444 1 4.1499999999999998e-01 8.7997097283602947e+00 2.2444246743678828e+00 2.8719375477952266e+01 -1 6 0
1174 444 2 -8.2999999999999996e-01 3.2084942720600105e+00 4.4059824527622977e+00 2.9993545509516075e+01 0 -1 0
1175 444 1 4.1499999999999998e-01 3.2919752239675901e+00 5.2912491956097156e+00 2.9639192634230003e+01 0 -1 0
1176 444 1 4.1499999999999998e-01 3.7921702275726612e+00 3.8746836566089544e+00 2.9451995680718834e+01 0 -1 0
2962 444 2 -8.2999999999999996e-01 8.2666307145715994e+00 2.2046873315862410e+00 3.2480282728742537e+01 1 0 0