LAMMPS data file via write_data, version 11 Aug 2017, timestep = 500000

7172 atoms
4 atom types
4000 bonds
1 bond types
2000 angles
1 angle types

0.0000000000000000e+00 4.5679949999999998e+01 xlo xhi
0.0000000000000000e+00 4.6885919999999999e+01 ylo yhi
0.0000000000000000e+00 6.5000000000000000e+01 zlo zhi

Masses

1 1.0079
2 15.9994
3 18.9984
4 107.868

Bond Coeffs # harmonic

1 450 0.9572

Angle Coeffs # harmonic

1 55 104.52

Atoms # full

6021 444 4 0.0000000000000000e+00 1.6907200000000000e+00 0.0000000000000000e+00 0.0000000000000000e+00 0 0 0
6022 444 4 0.0000000000000000e+00 4.2285000000000004e+00 1.4651900000000000e+00 0.0000000000000000e+00 0 0 0
6023 444 4 7.0720000000000005e-02 1.6907700000000001e+00 0.0000000000000000e+00 7.1781499999999996e+00 0 0 0
6024 444 4 6.9440000000000002e-02 4.2285500000000003e+00 1.4651900000000000e+00 7.1781499999999996e+00 0 0 0
6025 444 4 0.0000000000000000e+00 2.5366499999999998e+00 1.4651900000000000e+00 2.3926400000000001e+00 0 0 0
6026 444 4 0.0000000000000000e+00 5.0744199999999999e+00 0.0000000000000000e+00 2.3926400000000001e+00 0 0 0
6027 444 4 0.0000000000000000e+00 8.4509000000000001e-01 1.4651900000000000e+00 4.7824200000000001e+00 0 0 0
6028 444 4 0.0000000000000000e+00 3.3828600000000000e+00 0.0000000000000000e+00 4.7824499999999999e+00 0 0 0
6029 444 4 0.0000000000000000e+00 1.6907200000000000e+00 2.9303699999999999e+00 0.0000000000000000e+00 0 0 0
6030 444 4 0.0000000000000000e+00 4.2285000000000004e+00 4.3955599999999997e+00 0.0000000000000000e+00 0 0 0
6031 444 4 6.9440000000000002e-02 1.6907700000000001e+00 2.9303699999999999e+00 7.1781899999999998e+00 0 0 0
6032 444 4 6.9440000000000002e-02 4.2285500000000003e+00 4.3955599999999997e+00 7.1781600000000001e+00 0 0 0
6033 444 4 0.0000000000000000e+00 2.5366499999999998e+00 4.3955599999999997e+00 2.3926400000000001e+00 0 0 0
6034 444 4 0.0000000000000000e+00 5.0744199999999999e+00 2.9303699999999999e+00 2.3926400000000001e+00 0 0 0
6035 444 4 0.0000000000000000e+00 8.4509000000000001e-01 4.3955599999999997e+00 4.7824499999999999e+00 0 0 0
6036 444 4 0.0000000000000000e+00 3.3828700000000000e+00 2.9303699999999999e+00 4.7824400000000002e+00 0 0 0
6037 444 4 0.0000000000000000e+00 1.6907200000000000e+00 5.8607399999999998e+00 0.0000000000000000e+00 0 0 0
6038 444 4 0.0000000000000000e+00 4.2285000000000004e+00 7.3259299999999996e+00 0.0000000000000000e+00 0 0 0
6039 444 4 6.9440000000000002e-02 1.6907700000000001e+00 5.8607399999999998e+00 7.1781499999999996e+00 0 0 0
6040 444 4 6.9440000000000002e-02 4.2285500000000003e+00 7.3259299999999996e+00 7.1781499999999996e+00 0 0 0
6041 444 4 0.0000000000000000e+00 2.5366499999999998e+00 7.3259299999999996e+00 2.3926400000000001e+00 0 0 0
6042 444 4 0.0000000000000000e+00 5.0744199999999999e+00 5.8607399999999998e+00 2.3926400000000001e+00 0 0 0
6043 444 4 0.0000000000000000e+00 8.4509000000000001e-01 7.3259299999999996e+00 4.7824200000000001e+00 0 0 0
6044 444 4 0.0000000000000000e+00 3.3828600000000000e+00 5.8607399999999998e+00 4.7824499999999999e+00 0 0 0
6149 444 4 0.0000000000000000e+00 6.7662699999999996e+00 0.0000000000000000e+00 0.0000000000000000e+00 0 0 0
6151 444 4 6.9440000000000002e-02 6.7663200000000003e+00 0.0000000000000000e+00 7.1781499999999996e+00 0 0 0
6153 444 4 0.0000000000000000e+00 7.6121999999999996e+00 1.4651900000000000e+00 2.3926400000000001e+00 0 0 0
6155 444 4 0.0000000000000000e+00 5.9206399999999997e+00 1.4651900000000000e+00 4.7824200000000001e+00 0 0 0
6157 444 4 0.0000000000000000e+00 6.7662699999999996e+00 2.9303699999999999e+00 0.0000000000000000e+00 0 0 0
6159 444 4 6.9440000000000002e-02 6.7663200000000003e+00 2.9303699999999999e+00 7.1781899999999998e+00 0 0 0
6161 444 4 0.0000000000000000e+00 7.6121999999999996e+00 4.3955599999999997e+00 2.3926400000000001e+00 0 0 0
6163 444 4 0.0000000000000000e+00 5.9206399999999997e+00 4.3955599999999997e+00 4.7824499999999999e+00 0 0 0
6165 444 4 0.0000000000000000e+00 6.7662699999999996e+00 5.8607399999999998e+00 0.0000000000000000e+00 0 0 0
6167 444 4 6.9440000000000002e-02 6.7663200000000003e+00 5.8607399999999998e+00 7.1781499999999996e+00 0 0 0
6169 444 4 0.0000000000000000e+00 7.6121999999999996e+00 7.3259299999999996e+00 2.3926400000000001e+00 0 0 0
6171 444 4 0.0000000000000000e+00 5.9206399999999997e+00 7.3259299999999996e+00 4.7824200000000001e+00 0 0 0
6045 444 4 0.0000000000000000e+00 1.6907200000000000e+00 8.7911099999999998e+00 0.0000000000000000e+00 0 0 0
6046 444 4 0.0000000000000000e+00 4.2285000000000004e+00 1.0256300000000000e+01 0.0000000000000000e+00 0 0 0
6047 444 4 6.9440000000000002e-02 1.6907700000000001e+00 8.7911099999999998e+00 7.1781899999999998e+00 0 0 0
6048 444 4 6.9440000000000002e-02 4.2285500000000003e+00 1.0256300000000000e+01 7.1781600000000001e+00 0 0 0
6049 444 4 0.0000000000000000e+00 2.5366499999999998e+00 1.0256300000000000e+01 2.3926400000000001e+00 0 0 0
6050 444 4 0.0000000000000000e+00 5.0744199999999999e+00 8.7911099999999998e+00 2.3926400000000001e+00 0 0 0
6051 444 4 0.0000000000000000e+00 8.4509000000000001e-01 1.0256300000000000e+01 4.7824499999999999e+00 0 0 0
6052 444 4 0.0000000000000000e+00 3.3828700000000000e+00 8.7911099999999998e+00 4.7824400000000002e+00 0 0 0
6173 444 4 0.0000000000000000e+00 6.7662699999999996e+00 8.7911099999999998e+00 0.0000000000000000e+00 0 0 0
6175 444 4 6.9440000000000002e-02 6.7663200000000003e+00 8.7911099999999998e+00 7.1781899999999998e+00 0 0 0
6177 444 4 0.0000000000000000e+00 7.6121999999999996e+00 1.0256300000000000e+01 2.3926400000000001e+00 0 0 0
6179 444 4 0.0000000000000000e+00 5.9206399999999997e+00 1.0256300000000000e+01 4.7824499999999999e+00 0 0 0
6150 444 4 0.0000000000000000e+00 9.3040500000000002e+00 1.4651900000000000e+00 0.0000000000000000e+00 0 0 0
6152 444 4 6.9440000000000002e-02 9.3041000000000000e+00 1.4651900000000000e+00 7.1781499999999996e+00 0 0 0
6154 444 4 0.0000000000000000e+00 1.0149970000000000e+01 0.0000000000000000e+00 2.3926400000000001e+00 0 0 0
6156 444 4 0.0000000000000000e+00 8.4584100000000007e+00 0.0000000000000000e+00 4.7824499999999999e+00 0 0 0
6158 444 4 0.0000000000000000e+00 9.3040500000000002e+00 4.3955599999999997e+00 0.0000000000000000e+00 0 0 0
6160 444 4 6.9440000000000002e-02 9.3041000000000000e+00 4.3955599999999997e+00 7.1781600000000001e+00 0 0 0
6162 444 4 0.0000000000000000e+00 1.0149970000000000e+01 2.9303699999999999e+00 2.3926400000000001e+00 0 0 0
6164 444 4 0.0000000000000000e+00 8.4584200000000003e+00 2.9303699999999999e+00 4.7824400000000002e+00 0 0 0
6166 444 4 0.0000000000000000e+00 9.3040500000000002e+00 7.3259299999999996e+00 0.0000000000000000e+00 0 0 0
6168 444 4 6.9440000000000002e-02 9.3041000000000000e+00 7.3259299999999996e+00 7.1781499999999996e+00 0 0 0
6170 444 4 0.0000000000000000e+00 1.0149970000000000e+01 5.8607399999999998e+00 2.3926400000000001e+00 0 0 0
6172 444 4 0.0000000000000000e+00 8.4584100000000007e+00 5.8607399999999998e+00 4.7824499999999999e+00 0 0 0
6283 444 4 0.0000000000000000e+00 1.0996190000000000e+01 1.4651900000000000e+00 4.7824200000000001e+00 0 0 0
6291 444 4 0.0000000000000000e+00 1.0996190000000000e+01 4.3955599999999997e+00 4.7824499999999999e+00 0 0 0
6299 444 4 0.0000000000000000e+00 1.0996190000000000e+01 7.3259299999999996e+00 4.7824200000000001e+00 0 0 0
6277 444 4 0.0000000000000000e+00 1.1841820000000000e+01 0.0000000000000000e+00 0.0000000000000000e+00 0 0 0
6278 444 4 0.0000000000000000e+00 1.4379600000000000e+01 1.4651900000000000e+00 0.0000000000000000e+00 0 0 0
6279 444 4 6.9440000000000002e-02 1.1841870000000000e+01 0.0000000000000000e+00 7.1781499999999996e+00 0 0 0
6280 444 4 6.9440000000000002e-02 1.4379650000000000e+01 1.4651900000000000e+00 7.1781499999999996e+00 0 0 0
6281 444 4 0.0000000000000000e+00 1.2687749999999999e+01 1.4651900000000000e+00 2.3926400000000001e+00 0 0 0
6282 444 4 0.0000000000000000e+00 1.5225519999999999e+01 0.0000000000000000e+00 2.3926400000000001e+00 0 0 0
6284 444 4 0.0000000000000000e+00 1.3533960000000000e+01 0.0000000000000000e+00 4.7824499999999999e+00 0 0 0
6285 444 4 0.0000000000000000e+00 1.1841820000000000e+01 2.9303699999999999e+00 0.0000000000000000e+00 0 0 0
6286 444 4 0.0000000000000000e+00 1.4379600000000000e+01 4.3955599999999997e+00 0.0000000000000000e+00 0 0 0
6287 444 4 6.9440000000000002e-02 1.1841870000000000e+01 2.9303699999999999e+00 7.1781899999999998e+00 0 0 0
6288 444 4 6.9440000000000002e-02 1.4379650000000000e+01 4.3955599999999997e+00 7.1781600000000001e+00 0 0 0
6289 444 4 0.0000000000000000e+00 1.2687749999999999e+01 4.3955599999999997e+00 2.3926400000000001e+00 0 0 0
6290 444 4 0.0000000000000000e+00 1.5225519999999999e+01 2.9303699999999999e+00 2.3926400000000001e+00 0 0 0
6292 444 4 0.0000000000000000e+00 1.3533970000000000e+01 2.9303699999999999e+00 4.7824400000000002e+00 0 0 0
6293 444 4 0.0000000000000000e+00 1.1841820000000000e+01 5.8607399999999998e+00 0.0000000000000000e+00 0 0 0
6294 444 4 0.0000000000000000e+00 1.4379600000000000e+01 7.3259299999999996e+00 0.0000000000000000e+00 0 0 0
6295 444 4 6.9440000000000002e-02 1.1841870000000000e+01 5.8607399999999998e+00 7.1781499999999996e+00 0 0 0
6296 444 4 6.9440000000000002e-02 1.4379650000000000e+01 7.3259299999999996e+00 7.1781499999999996e+00 0 0 0
6297 444 4 0.0000000000000000e+00 1.2687749999999999e+01 7.3259299999999996e+00 2.3926400000000001e+00 0 0 0
6298 444 4 0.0000000000000000e+00 1.5225519999999999e+01 5.8607399999999998e+00 2.3926400000000001e+00 0 0 0
6300 444 4 0.0000000000000000e+00 1.3533960000000000e+01 5.8607399999999998e+00 4.7824499999999999e+00 0 0 0
6174 444 4 0.0000000000000000e+00 9.3040500000000002e+00 1.0256300000000000e+01 0.0000000000000000e+00 0 0 0
6176 444 4 6.9440000000000002e-02 9.3041000000000000e+00 1.0256300000000000e+01 7.1781600000000001e+00 0 0 0
6178 444 4 0.0000000000000000e+00 1.0149970000000000e+01 8.7911099999999998e+00 2.3926400000000001e+00 0 0 0
6180 444 4 0.0000000000000000e+00 8.4584200000000003e+00 8.7911099999999998e+00 4.7824400000000002e+00 0 0 0
6307 444 4 0.0000000000000000e+00 1.0996190000000000e+01 1.0256300000000000e+01 4.7824499999999999e+00 0 0 0
6301 444 4 0.0000000000000000e+00 1.1841820000000000e+01 8.7911099999999998e+00 0.0000000000000000e+00 0 0 0
6302 444 4 0.0000000000000000e+00 1.4379600000000000e+01 1.0256300000000000e+01 0.0000000000000000e+00 0 0 0
6303 444 4 6.9440000000000002e-02 1.1841870000000000e+01 8.7911099999999998e+00 7.1781899999999998e+00 0 0 0
6304 444 4 6.9440000000000002e-02 1.4379650000000000e+01 1.0256300000000000e+01 7.1781600000000001e+00 0 0 0
6305 444 4 0.0000000000000000e+00 1.2687749999999999e+01 1.0256300000000000e+01 2.3926400000000001e+00 0 0 0
6306 444 4 0.0000000000000000e+00 1.5225519999999999e+01 8.7911099999999998e+00 2.3926400000000001e+00 0 0 0
6308 444 4 0.0000000000000000e+00 1.3533970000000000e+01 8.7911099999999998e+00 4.7824400000000002e+00 0 0 0
6020 444 3 -1.0000000000000000e+00 6.3159237784628859e+00 5.6685302069274739e+00 9.2241356907172705e+00 0 0 0
4027 444 2 -8.2999999999999996e-01 2.0675682078096407e+00 1.0164825619350758e+01 9.9653627560128779e+00 0 -1 0
4028 444 1 4.1499999999999998e-01 2.9018858616123979e+00 9.7536882801409313e+00 1.0191442416068105e+01 0 -1 0
1781 444 1 4.1499999999999998e-01 3.6821030856118071e+00 7.5663278786186066e+00 1.0168104049484587e+01 1 3 0
1782 444 1 4.1499999999999998e-01 4.9013272826975296e+00 8.4556482777409894e+00 1.0288506475662619e+01 1 3 0
1780 444 2 -8.2999999999999996e-01 3.9456031274878378e+00 8.4704345171030244e+00 1.0339541409667568e+01 1 3 0
3813 444 1 4.1499999999999998e-01 4.7206767782848997e+00 5.9296214399765494e+00 9.6975072429719358e+00 -1 0 0
3811 444 2 -8.2999999999999996e-01 3.7852167644340597e+00 5.7922742062021264e+00 9.8467798079649853e+00 -1 0 0
3812 444 1 4.1499999999999998e-01 3.7068149086428472e+00 4.8567565273158326e+00 1.0033573009232695e+01 -1 0 0
5711 444 1 4.1499999999999998e-01 5.8197588963359559e+00 6.4784852206853909e+00 1.2732259874934144e+01 -3 1 0
4759 444 2 -8.2999999999999996e-01 5.1118961785862886e+00 1.1154866659348414e+01 1.1579262824254634e+01 0 -3 0
257 444 1 4.1499999999999998e-01 2.5020472036890031e+00 1.0175848598196227e+01 1.3261285463363965e+01 0 2 0
999 444 1 4.1499999999999998e-01 6.7650115710257026e+00 2.8334703754996258e+00 1.0119468317966632e+01 0 -1 0
997 444 2 -8.2999999999999996e-01 5.8784120048690038e+00 3.1853924723531120e+00 1.0039945337197873e+01 0 -1 0
4761 444 1 4.1499999999999998e-01 5.9829672236498723e+00 1.1076200429135138e+01 1.1190317170853229e+01 0 -3 0
998 444 1 4.1499999999999998e-01 6.0005806217106734e+00 4.0654545220986611e+00 9.6838588658649147e+00 0 -1 0
5211 444 1 4.1499999999999998e-01 6.7318360362249559e+00 7.2407441068224179e+00 9.9518840114039726e+00 3 2 0
4760 444 1 4.1499999999999998e-01 4.7901222732187874e+00 1.0254872812325285e+01 1.1631267345514111e+01 0 -3 0
256 444 2 -8.2999999999999996e-01 1.8819502629722051e+00 9.4467636245977040e+00 1.3249166511327340e+01 0 2 0
258 444 1 4.1499999999999998e-01 2.4258404370341706e+00 8.6714093067364146e+00 1.3110453886052245e+01 0 2 0
1734 444 1 4.1499999999999998e-01 2.2541129832282292e+00 5.2942719583520690e+00 1.2742471140679399e+01 0 1 0
3345 444 1 4.1499999999999998e-01 3.0611863352733266e+00 1.9960467382595688e+00 1.0076771612821599e+01 1 0 0
3343 444 2 -8.2999999999999996e-01 3.2527559816275371e+00 2.9325694985861417e+00 1.0126350434635709e+01 1 0 0
5929 444 2 -8.2999999999999996e-01 1.0140063587141732e+00 5.7647012546915581e+00 1.0326702991657948e+01 0 -1 0
3344 444 1 4.1499999999999998e-01 4.2053764123014412e+00 2.9786855987102818e+00 1.0207710910624346e+01 1 0 0
5930 444 1 4.1499999999999998e-01 1.9486301138671045e+00 5.9098199643940266e+00 1.0179558481116864e+01 0 -1 0
4070 444 1 4.1499999999999998e-01 1.3961080852777079e+00 6.6773093299892690e+00 1.5764802366888404e+01 0 0 0
1732 444 2 -8.2999999999999996e-01 2.4763944596730476e+00 6.2252686453748503e+00 1.2734227003797171e+01 0 1 0
4029 444 1 4.1499999999999998e-01 1.4047744670630513e+00 9.5839657521837704e+00 1.0338910815897824e+01 0 -1 0
1920 444 1 4.1499999999999998e-01 7.4860630090976112e+00 1.0661901894711503e+01 1.5273106766799259e+01 1 1 0
5710 444 2 -8.2999999999999996e-01 5.1745039462976425e+00 6.2515564763776617e+00 1.3401872824568379e+01 -3 1 0
5209 444 2 -8.2999999999999996e-01 6.6443247171470237e+00 8.1435807566417111e+00 1.0257595739113329e+01 3 2 0
1733 444 1 4.1499999999999998e-01 3.4315225280792316e+00 6.2444981206419659e+00 1.2794164068581898e+01 0 1 0
3653 444 1 4.1499999999999998e-01 4.1076845602225633e+00 3.5655520035639654e+00 1.3119644928540467e+01 0 1 0
221 444 1 4.1499999999999998e-01 1.6650401262890817e+00 3.0629942900149838e+00 1.2503425501067799e+01 3 2 0
220 444 2 -8.2999999999999996e-01 2.2538022972111289e+00 3.5164891208460527e+00 1.3106695214986804e+01 3 2 0
4163 444 1 4.1499999999999998e-01 1.1233133587187130e+00 6.9205488889227755e+00 1.3272886136385811e+01 0 4 0
4164 444 1 4.1499999999999998e-01 4.8775248808042643e-01 8.1049630671925659e+00 1.3969392143984763e+01 0 4 0
4162 444 2 -8.2999999999999996e-01 3.4665927747572317e-01 7.1797271000238077e+00 1.3768735877118923e+01 0 4 0
222 444 1 4.1499999999999998e-01 2.2902754954739946e+00 2.9502182725552850e+00 1.3877564527041937e+01 3 2 0
5712 444 1 4.1499999999999998e-01 5.2461547997558018e+00 6.9512689060874884e+00 1.4051103737721476e+01 -3 1 0
4020 444 1 4.1499999999999998e-01 1.5591488890938581e+00 2.7847663269859311e+00 1.0635811757760559e+01 1 2 0
4748 444 1 4.1499999999999998e-01 2.6480887300818292e+00 6.7563000025798303e-01 1.5283132423672056e+01 1 1 0
5530 444 2 -8.2999999999999996e-01 7.2620608937873730e+00 1.1319896569442193e+01 1.0188517465195428e+01 0 -1 0
5210 444 1 4.1499999999999998e-01 7.4215154634059175e+00 8.5880202217476374e+00 9.9189514364933551e+00 3 2 0
4749 444 1 4.1499999999999998e-01 1.2821939465518504e+00 1.2667359110877157e+00 1.5005967438624225e+01 1 1 0
3652 444 2 -8.2999999999999996e-01 4.9087085228314695e+00 3.6894419205697426e+00 1.3628804764252395e+01 0 1 0
4747 444 2 -8.2999999999999996e-01 2.1733367636442269e+00 1.5064820205705693e+00 1.5260168421857594e+01 1 1 0
3654 444 1 4.1499999999999998e-01 5.1077005634778585e+00 4.6215193629143441e+00 1.3540116209161722e+01 0 1 0
4018 444 2 -8.2999999999999996e-01 6.9583245734215882e-01 2.8882332014062007e+00 1.1036075658617811e+01 1 2 0
4019 444 1 4.1499999999999998e-01 4.1246728023650359e-01 3.7637114930714426e+00 1.0772496830419060e+01 1 2 0
457 444 2 -8.2999999999999996e-01 7.3228332737341617e+00 8.3239860451790282e+00 1.3027105709336784e+01 0 1 0
1089 444 1 4.1499999999999998e-01 4.0213986582954420e-01 1.0756401344885925e+01 1.3316081161505785e+01 1 0 0
459 444 1 4.1499999999999998e-01 7.0318211217013218e+00 8.3900926047835043e+00 1.2117614804770902e+01 0 1 0
801 444 1 4.1499999999999998e-01 7.2196023619931164e+00 3.3850958711957366e+00 1.3274531802145306e+01 0 -4 0
3885 444 1 4.1499999999999998e-01 6.0839451908211180e+00 4.2616798446217047e-01 1.0218360240770986e+01 2 1 0
5429 444 1 4.1499999999999998e-01 5.8535294301223786e+00 3.0129733976251232e+00 1.5082703114179417e+01 1 3 0
5428 444 2 -8.2999999999999996e-01 6.1718170045035539e+00 2.2701878781748985e+00 1.5595729012919589e+01 1 3 0
286 444 2 -8.2999999999999996e-01 2.9441653126795675e-01 8.5332348370790463e+00 1.0942470038696353e+01 1 0 0
5931 444 1 4.1499999999999998e-01 7.1551348112604707e-01 6.5569793725603205e+00 1.0773278409770176e+01 0 -1 0
549 444 1 4.1499999999999998e-01 1.7217377043157711e-01 1.0761845334702438e+00 1.0288100214048693e+01 0 -1 0
3114 444 1 4.1499999999999998e-01 5.8103438977942119e+00 1.6048081859994290e-01 1.5667396075188927e+01 -2 1 0
2487 444 1 4.1499999999999998e-01 4.2362506538249436e+00 8.9290463251681262e-01 1.3444184333722795e+01 2 2 0
5389 444 2 -8.2999999999999996e-01 3.1834257535180064e+00 2.9624465001213585e-01 1.0057317155922302e+01 1 -1 0
5391 444 1 4.1499999999999998e-01 3.4598908716187560e+00 3.3141717050016717e-01 1.0973047356700578e+01 1 -1 0
288 444 1 4.1499999999999998e-01 3.4379425888811005e-01 8.5871502875719301e+00 1.1896873937186772e+01 1 0 0
2485 444 2 -8.2999999999999996e-01 4.2788792352015221e+00 2.0159700438404071e-01 1.2783496459986068e+01 2 2 0
2486 444 1 4.1499999999999998e-01 5.1959333620738137e+00 1.8767405715887975e-01 1.2509542911623942e+01 2 2 0
1919 444 1 4.1499999999999998e-01 8.0220611919234344e+00 9.8861562192011530e+00 1.4088699792217671e+01 1 1 0
1918 444 2 -8.2999999999999996e-01 8.2915814803496577e+00 1.0290424218032438e+01 1.4913417181163888e+01 1 1 0
5531 444 1 4.1499999999999998e-01 7.8585840991591080e+00 1.0573462691975497e+01 1.0245336338453351e+01 0 -1 0
458 444 1 4.1499999999999998e-01 8.2319688822355896e+00 8.0304805124470811e+00 1.2967449897068569e+01 0 1 0
433 444 2 -8.2999999999999996e-01 8.3336371356128378e+00 1.0874101778888210e+00 1.2887695088101571e+01 -1 0 0
434 444 1 4.1499999999999998e-01 7.6783289090850060e+00 1.1615654516349236e+00 1.2193934051952791e+01 -1 0 0
2660 444 1 4.1499999999999998e-01 9.3092700493618086e+00 2.0450978774219606e+00 1.0415665604933324e+01 1 2 0
2661 444 1 4.1499999999999998e-01 8.6066240013684823e+00 3.3337462553772075e+00 1.0044762550405872e+01 1 2 0
2659 444 2 -8.2999999999999996e-01 8.4750371863798364e+00 2.3869150539381470e+00 1.0094031649903416e+01 1 2 0
3927 444 1 4.1499999999999998e-01 9.6729562249963017e+00 4.7930901562473744e+00 1.2828370837243265e+01 -4 0 0
4181 444 1 4.1499999999999998e-01 1.3378884070767628e+01 8.4367087681139825e+00 1.1768005550805466e+01 0 -1 0
4392 444 1 4.1499999999999998e-01 8.3326276269289448e+00 4.6516100733181132e+00 1.5380023534095669e+01 0 2 0
4641 444 1 4.1499999999999998e-01 7.7124598197473997e+00 5.3259420584455190e+00 1.0120554445793335e+01 0 0 0
4639 444 2 -8.2999999999999996e-01 8.6154277777341157e+00 5.1299957506289546e+00 1.0370526415474790e+01 0 0 0
4640 444 1 4.1499999999999998e-01 9.1178132730156509e+00 5.8863673073582783e+00 1.0067635338487738e+01 0 0 0
235 444 2 -8.2999999999999996e-01 1.0655072729540537e+01 2.0780099881795393e+00 1.1574209690652099e+01 1 3 0
4801 444 2 -8.2999999999999996e-01 1.1587498353094389e+01 4.6698783591048789e+00 9.9389842040312590e+00 1 0 0
1181 444 1 4.1499999999999998e-01 9.6418011840477007e+00 7.3001492486854911e+00 1.1111753883403678e+01 -1 0 0
4803 444 1 4.1499999999999998e-01 1.1010739006313699e+01 5.4328101997863349e+00 9.9000544303617790e+00 1 0 0
4802 444 1 4.1499999999999998e-01 1.1093220867084066e+01 4.0206548734618410e+00 1.0439414483131122e+01 1 0 0
6007 444 3 -1.0000000000000000e+00 1.0062878025581163e+01 6.9517664455659807e+00 9.3349917611988786e+00 1 0 0
5633 444 1 4.1499999999999998e-01 1.1418073631699583e+01 7.7466951320519364e+00 9.9538224385141412e+00 1 0 0
236 444 1 4.1499999999999998e-01 1.1389112330388302e+01 2.3605236872670092e+00 1.2119741299422577e+01 1 3 0
237 444 1 4.1499999999999998e-01 1.0023675455645606e+01 1.7108073075627206e+00 1.2192863692752207e+01 1 3 0
410 444 1 4.1499999999999998e-01 9.3897813229361109e+00 8.4493221281164868e+00 9.6973989601603936e+00 4 -1 0
409 444 2 -8.2999999999999996e-01 9.0338041100374866e+00 9.3342531376626408e+00 9.7774569105843092e+00 4 -1 0
5632 444 2 -8.2999999999999996e-01 1.2287871416000433e+01 7.8119403723665748e+00 1.0348064636347125e+01 1 0 0
411 444 1 4.1499999999999998e-01 9.7855443814563756e+00 9.8741459355910699e+00 1.0021658022795137e+01 4 -1 0
5634 444 1 4.1499999999999998e-01 1.2552446272755688e+01 6.9042088364329999e+00 1.0497247438263212e+01 1 0 0
1180 444 2 -8.2999999999999996e-01 9.7059859050723887e+00 7.4609717947703063e+00 1.2053161497427865e+01 -1 0 0
2083 444 2 -8.2999999999999996e-01 1.1827931538521208e+01 1.0410427399398650e+01 1.0406400651468749e+01 -1 1 0
4180 444 2 -8.2999999999999996e-01 1.3713597881259822e+01 8.7605373963978295e+00 1.2604267196116201e+01 0 -1 0
1182 444 1 4.1499999999999998e-01 1.0149562341611178e+01 6.6865614564383575e+00 1.2399225749332746e+01 -1 0 0
2085 444 1 4.1499999999999998e-01 1.2739446330760337e+01 1.0638256978857013e+01 1.0223462627743952e+01 -1 1 0
4182 444 1 4.1499999999999998e-01 1.2940581748532914e+01 8.8189096884191827e+00 1.3165756844340487e+01 0 -1 0
2084 444 1 4.1499999999999998e-01 1.1831033415793970e+01 9.4568931315018219e+00 1.0490034612266435e+01 -1 1 0
4605 444 1 4.1499999999999998e-01 9.6072081653880481e+00 1.1062417015680392e+01 1.5661733507464550e+01 1 0 0
3926 444 1 4.1499999999999998e-01 1.1121102485052523e+01 4.3627448700503315e+00 1.2926201686594966e+01 -4 0 0
800 444 1 4.1499999999999998e-01 7.7103183894062308e+00 4.3782447741436625e+00 1.2242665401120146e+01 0 -4 0
799 444 2 -8.2999999999999996e-01 7.7399601170271799e+00 4.1828293531249878e+00 1.3179236921429137e+01 0 -4 0
3925 444 2 -8.2999999999999996e-01 1.0567793789147625e+01 5.1219095389707112e+00 1.2742488345807390e+01 -4 0 0
2708 444 1 4.1499999999999998e-01 1.3413202329506715e+01 4.6580304201264138e+00 9.8799316578551739e+00 2 -1 0
2690 444 1 4.1499999999999998e-01 1.4646349987118878e+01 1.0122283481958549e+01 1.2403097302009023e+01 0 -2 0
4649 444 1 4.1499999999999998e-01 1.3448705792290159e+01 3.2172166784950789e+00 1.2048891530208088e+01 1 -2 0
4054 444 2 -8.2999999999999996e-01 1.1563421260605086e+01 8.8733548027650109e+00 1.4065117292196119e+01 -1 -1 0
4056 444 1 4.1499999999999998e-01 1.1276703024180270e+01 8.8457802597790902e+00 1.4977950444188169e+01 -1 -1 0
4055 444 1 4.1499999999999998e-01 1.0840364958601006e+01 9.2931041909387311e+00 1.3599035782822934e+01 -1 -1 0
2689 444 2 -8.2999999999999996e-01 1.5015045664504759e+01 1.0967766364729272e+01 1.2147253440969354e+01 0 -2 0
4648 444 2 -8.2999999999999996e-01 1.2811082612728962e+01 3.2296094902071757e+00 1.2762694678426195e+01 1 -2 0
4603 444 2 -8.2999999999999996e-01 1.0268982733805473e+01 1.1487602428961607e+01 1.6207172442902561e+01 1 0 0
749 444 1 4.1499999999999998e-01 1.2526847220859906e+01 7.0454293764723923e+00 1.5160191541433678e+01 2 -2 0
750 444 1 4.1499999999999998e-01 1.2053391873381752e+01 6.1237433841537410e+00 1.4056456823994463e+01 2 -2 0
748 444 2 -8.2999999999999996e-01 1.2791888203752958e+01 6.2842190703181426e+00 1.4643911720668772e+01 2 -2 0
4308 444 1 4.1499999999999998e-01 1.2894005241491193e+01 5.1947648534802786e+00 1.6007036476851912e+01 -1 3 0
2707 444 2 -8.2999999999999996e-01 1.4251558183176257e+01 5.0325587631265307e+00 1.0150340331132268e+01 2 -1 0
4650 444 1 4.1499999999999998e-01 1.3217739290648652e+01 2.7108498671861065e+00 1.3456777282972251e+01 1 -2 0
4391 444 1 4.1499999999999998e-01 8.4931660908622870e+00 5.9152469830889682e+00 1.6198158337752968e+01 0 2 0
2793 444 1 4.1499999999999998e-01 1.0647825310854197e+01 8.2157264949149922e-01 1.0436456353638910e+01 -1 1 0
5562 444 1 4.1499999999999998e-01 1.4717787038554619e+01 8.6749538029738531e+00 1.4081972128709502e+01 0 2 0
435 444 1 4.1499999999999998e-01 8.1019483165286701e+00 2.8286808208467418e-01 1.3351661517530742e+01 -1 0 0
1015 444 2 -8.2999999999999996e-01 1.4235455062086979e+01 1.8320381170366220e+00 1.4484450697777316e+01 0 2 0
4390 444 2 -8.2999999999999996e-01 8.8221388685632807e+00 5.0201715926888371e+00 1.6115396492162105e+01 0 2 0
4869 444 1 4.1499999999999998e-01 1.0435743622373201e+01 7.1421637461062026e-01 1.6023467112728412e+01 1 2 0
1017 444 1 4.1499999999999998e-01 1.4458024625788026e+01 1.5430959688358392e+00 1.5369441101582385e+01 0 2 0
1016 444 1 4.1499999999999998e-01 1.4542819248384394e+01 1.1252448951714387e+00 1.3916820836659873e+01 0 2 0
4441 444 2 -8.2999999999999996e-01 1.5006233858821153e+01 5.1522916839977499e+00 1.3635391407743274e+01 1 -1 0
4442 444 1 4.1499999999999998e-01 1.4378006692675408e+01 5.6977163939018389e+00 1.4108756379669678e+01 1 -1 0
2791 444 2 -8.2999999999999996e-01 1.0645610885705564e+01 2.2327956845754093e-01 9.6892800948258273e+00 -1 1 0
2709 444 1 4.1499999999999998e-01 1.4807125775267997e+01 4.2737087100400473e+00 1.0328451785310872e+01 2 -1 0
4443 444 1 4.1499999999999998e-01 1.4528204574762782e+01 4.3449287225270563e+00 1.3445958293642034e+01 1 -1 0
3245 444 1 4.1499999999999998e-01 1.3976720474679091e+01 1.0482277578747540e+01 1.5815044697992388e+01 1 0 0
3986 444 1 4.1499999999999998e-01 1.9130065247469954e+00 3.0407950632790159e+00 1.6257905069595100e+01 1 -2 0
1677 444 1 4.1499999999999998e-01 4.2007658151494525e+00 1.0515351843209826e+01 1.6558296667756572e+01 -2 -1 0
896 444 1 4.1499999999999998e-01 6.1554497742136984e+00 3.8382196825064150e+00 1.8298021291532478e+01 3 0 0
3043 444 2 -8.2999999999999996e-01 5.7104422890777009e+00 1.1133266699492552e+01 1.6272667322773390e+01 -3 -1 0
1939 444 2 -8.2999999999999996e-01 7.5473821229553870e+00 7.3719111009261589e+00 1.6808400254515071e+01 0 2 0
3223 444 2 -8.2999999999999996e-01 2.9538564276099089e+00 4.3166128748291671e-01 2.3488602891216786e+01 2 2 0
1999 444 2 -8.2999999999999996e-01 1.9075936832037601e+00 1.1635644389801776e+01 2.1087239394395912e+01 0 0 0
4071 444 1 4.1499999999999998e-01 1.8380517364831728e+00 5.4557130581541768e+00 1.6542159149767144e+01 0 0 0
4069 444 2 -8.2999999999999996e-01 1.8238147994830545e+00 6.4120968746322697e+00 1.6579026629082133e+01 0 0 0
897 444 1 4.1499999999999998e-01 6.9330917168432205e+00 2.5433008096611545e+00 1.8399773053096474e+01 3 0 0
3985 444 2 -8.2999999999999996e-01 1.8178737380346135e+00 3.8574664445432338e+00 1.6748037889195835e+01 1 -2 0
3987 444 1 4.1499999999999998e-01 1.8571610492167465e+00 3.5919077390798706e+00 1.7666823681258084e+01 1 -2 0
895 444 2 -8.2999999999999996e-01 6.0956767445812972e+00 2.9437277807752453e+00 1.8633496399692035e+01 3 0 0
3597 444 1 4.1499999999999998e-01 3.5102387201676213e+00 7.2136787674459528e+00 1.6755077807585188e+01 -2 1 0
1941 444 1 4.1499999999999998e-01 6.6332194953596879e+00 7.6203741201926141e+00 1.6671268387004325e+01 0 2 0
3225 444 1 4.1499999999999998e-01 3.6993538100328331e+00 7.8816845702404958e-01 2.3971684823265928e+01 2 2 0
1195 444 2 -8.2999999999999996e-01 5.2468885327676276e+00 9.0559585092980370e+00 2.1549212721875609e+01 -1 1 0
3978 444 1 4.1499999999999998e-01 5.0502984328901031e+00 1.7593470057304248e+00 2.0052380305703490e+01 1 0 0
691 444 2 -8.2999999999999996e-01 3.0380972788653515e-01 6.7315678309703770e+00 1.8835885928388315e+01 0 1 0
5203 444 2 -8.2999999999999996e-01 5.6247932571082804e-01 9.3973757059511431e+00 2.0596022930119794e+01 2 0 0
1261 444 2 -8.2999999999999996e-01 1.4878313875186799e+00 8.9007003499272646e+00 2.3316012725726203e+01 2 2 0
4934 444 1 4.1499999999999998e-01 1.8512121376947643e-01 6.6371918574470552e+00 2.0474283603134957e+01 1 4 0
937 444 2 -8.2999999999999996e-01 1.0790452929416001e+00 3.0611108419335276e+00 1.9498404407869430e+01 -3 -2 0
939 444 1 4.1499999999999998e-01 1.2151880929272039e+00 3.0237905272260912e+00 2.0445138388000029e+01 -3 -2 0
592 444 2 -8.2999999999999996e-01 9.7352538884255380e-01 4.0181964810045825e+00 2.2306790398103239e+01 -1 -1 0
1469 444 1 4.1499999999999998e-01 7.3481046951908668e+00 2.8087923306902134e+00 2.2049945983654336e+01 -2 0 0
1068 444 1 4.1499999999999998e-01 1.9308901746768095e+00 7.3305464391440687e+00 2.4204998919668885e+01 0 1 0
3596 444 1 4.1499999999999998e-01 4.1402037135864322e+00 8.5737886407805508e+00 1.6967541295656567e+01 -2 1 0
3595 444 2 -8.2999999999999996e-01 4.3387370950250590e+00 7.6856304104395781e+00 1.6670905907765864e+01 -2 1 0
593 444 1 4.1499999999999998e-01 6.1914582555650732e-01 4.5965825709323038e+00 2.2982154700587024e+01 -1 -1 0
1262 444 1 4.1499999999999998e-01 1.9640866560074703e+00 8.5443591464098265e+00 2.2566056748623932e+01 2 2 0
594 444 1 4.1499999999999998e-01 1.0389335229287788e+00 3.1635648004517174e+00 2.2732888327145535e+01 -1 -1 0
1675 444 2 -8.2999999999999996e-01 3.4607871648387620e+00 1.0161509237904387e+01 1.7051712175419595e+01 -2 -1 0
4933 444 2 -8.2999999999999996e-01 3.1128509162193946e-01 6.5800052206851021e+00 2.1421407800975999e+01 1 4 0
2838 444 1 4.1499999999999998e-01 8.8936470124704470e-01 1.1015190545496946e+01 1.7443201024173320e+01 -1 2 0