LAMMPS data file via write_data, version 11 Aug 2017, timestep = 5000000

7157 atoms
4 atom types
4000 bonds
1 bond types
2000 angles
1 angle types

0.0000000000000000e+00 4.5679949999999998e+01 xlo xhi
0.0000000000000000e+00 4.6885919999999999e+01 ylo yhi
0.0000000000000000e+00 6.5000000000000000e+01 zlo zhi

Masses

1 1.0079
2 15.9994
3 18.9984
4 107.868

Bond Coeffs # harmonic

1 450 0.9572

Angle Coeffs # harmonic

1 55 104.52

Atoms # full

6006 444 4 0.0000000000000000e+00 1.6907200000000000e+00 0.0000000000000000e+00 0.0000000000000000e+00 0 0 0
6007 444 4 0.0000000000000000e+00 4.2285000000000004e+00 1.4651900000000000e+00 0.0000000000000000e+00 0 0 0
6008 444 4 1.7360000000000000e-02 1.6907700000000001e+00 0.0000000000000000e+00 7.1781499999999996e+00 0 0 0
6009 444 4 1.7360000000000000e-02 4.2285500000000003e+00 1.4651900000000000e+00 7.1781499999999996e+00 0 0 0
6010 444 4 0.0000000000000000e+00 2.5366499999999998e+00 1.4651900000000000e+00 2.3926400000000001e+00 0 0 0
6011 444 4 0.0000000000000000e+00 5.0744199999999999e+00 0.0000000000000000e+00 2.3926400000000001e+00 0 0 0
6012 444 4 0.0000000000000000e+00 8.4509000000000001e-01 1.4651900000000000e+00 4.7824200000000001e+00 0 0 0
6013 444 4 0.0000000000000000e+00 3.3828600000000000e+00 0.0000000000000000e+00 4.7824499999999999e+00 0 0 0
6014 444 4 0.0000000000000000e+00 1.6907200000000000e+00 2.9303699999999999e+00 0.0000000000000000e+00 0 0 0
6015 444 4 0.0000000000000000e+00 4.2285000000000004e+00 4.3955599999999997e+00 0.0000000000000000e+00 0 0 0
6016 444 4 1.7360000000000000e-02 1.6907700000000001e+00 2.9303699999999999e+00 7.1781899999999998e+00 0 0 0
6017 444 4 1.7360000000000000e-02 4.2285500000000003e+00 4.3955599999999997e+00 7.1781600000000001e+00 0 0 0
6018 444 4 0.0000000000000000e+00 2.5366499999999998e+00 4.3955599999999997e+00 2.3926400000000001e+00 0 0 0
6019 444 4 0.0000000000000000e+00 5.0744199999999999e+00 2.9303699999999999e+00 2.3926400000000001e+00 0 0 0
6020 444 4 0.0000000000000000e+00 8.4509000000000001e-01 4.3955599999999997e+00 4.7824499999999999e+00 0 0 0
6021 444 4 0.0000000000000000e+00 3.3828700000000000e+00 2.9303699999999999e+00 4.7824400000000002e+00 0 0 0
6022 444 4 0.0000000000000000e+00 1.6907200000000000e+00 5.8607399999999998e+00 0.0000000000000000e+00 0 0 0
6023 444 4 0.0000000000000000e+00 4.2285000000000004e+00 7.3259299999999996e+00 0.0000000000000000e+00 0 0 0
6024 444 4 1.7360000000000000e-02 1.6907700000000001e+00 5.8607399999999998e+00 7.1781499999999996e+00 0 0 0
6025 444 4 1.7360000000000000e-02 4.2285500000000003e+00 7.3259299999999996e+00 7.1781499999999996e+00 0 0 0
6026 444 4 0.0000000000000000e+00 2.5366499999999998e+00 7.3259299999999996e+00 2.3926400000000001e+00 0 0 0
6027 444 4 0.0000000000000000e+00 5.0744199999999999e+00 5.8607399999999998e+00 2.3926400000000001e+00 0 0 0
6028 444 4 0.0000000000000000e+00 8.4509000000000001e-01 7.3259299999999996e+00 4.7824200000000001e+00 0 0 0
6029 444 4 0.0000000000000000e+00 3.3828600000000000e+00 5.8607399999999998e+00 4.7824499999999999e+00 0 0 0
6134 444 4 0.0000000000000000e+00 6.7662699999999996e+00 0.0000000000000000e+00 0.0000000000000000e+00 0 0 0
6136 444 4 1.7360000000000000e-02 6.7663200000000003e+00 0.0000000000000000e+00 7.1781499999999996e+00 0 0 0
6138 444 4 0.0000000000000000e+00 7.6121999999999996e+00 1.4651900000000000e+00 2.3926400000000001e+00 0 0 0
6140 444 4 0.0000000000000000e+00 5.9206399999999997e+00 1.4651900000000000e+00 4.7824200000000001e+00 0 0 0
6142 444 4 0.0000000000000000e+00 6.7662699999999996e+00 2.9303699999999999e+00 0.0000000000000000e+00 0 0 0
6144 444 4 1.7360000000000000e-02 6.7663200000000003e+00 2.9303699999999999e+00 7.1781899999999998e+00 0 0 0
6146 444 4 0.0000000000000000e+00 7.6121999999999996e+00 4.3955599999999997e+00 2.3926400000000001e+00 0 0 0
6148 444 4 0.0000000000000000e+00 5.9206399999999997e+00 4.3955599999999997e+00 4.7824499999999999e+00 0 0 0
6150 444 4 0.0000000000000000e+00 6.7662699999999996e+00 5.8607399999999998e+00 0.0000000000000000e+00 0 0 0
6152 444 4 1.7360000000000000e-02 6.7663200000000003e+00 5.8607399999999998e+00 7.1781499999999996e+00 0 0 0
6154 444 4 0.0000000000000000e+00 7.6121999999999996e+00 7.3259299999999996e+00 2.3926400000000001e+00 0 0 0
6156 444 4 0.0000000000000000e+00 5.9206399999999997e+00 7.3259299999999996e+00 4.7824200000000001e+00 0 0 0
6030 444 4 0.0000000000000000e+00 1.6907200000000000e+00 8.7911099999999998e+00 0.0000000000000000e+00 0 0 0
6031 444 4 0.0000000000000000e+00 4.2285000000000004e+00 1.0256300000000000e+01 0.0000000000000000e+00 0 0 0
6032 444 4 1.7360000000000000e-02 1.6907700000000001e+00 8.7911099999999998e+00 7.1781899999999998e+00 0 0 0
6033 444 4 1.7360000000000000e-02 4.2285500000000003e+00 1.0256300000000000e+01 7.1781600000000001e+00 0 0 0
6034 444 4 0.0000000000000000e+00 2.5366499999999998e+00 1.0256300000000000e+01 2.3926400000000001e+00 0 0 0
6035 444 4 0.0000000000000000e+00 5.0744199999999999e+00 8.7911099999999998e+00 2.3926400000000001e+00 0 0 0
6036 444 4 0.0000000000000000e+00 8.4509000000000001e-01 1.0256300000000000e+01 4.7824499999999999e+00 0 0 0
6037 444 4 0.0000000000000000e+00 3.3828700000000000e+00 8.7911099999999998e+00 4.7824400000000002e+00 0 0 0
6158 444 4 0.0000000000000000e+00 6.7662699999999996e+00 8.7911099999999998e+00 0.0000000000000000e+00 0 0 0
6160 444 4 1.7360000000000000e-02 6.7663200000000003e+00 8.7911099999999998e+00 7.1781899999999998e+00 0 0 0
6162 444 4 0.0000000000000000e+00 7.6121999999999996e+00 1.0256300000000000e+01 2.3926400000000001e+00 0 0 0
6164 444 4 0.0000000000000000e+00 5.9206399999999997e+00 1.0256300000000000e+01 4.7824499999999999e+00 0 0 0
6135 444 4 0.0000000000000000e+00 9.3040500000000002e+00 1.4651900000000000e+00 0.0000000000000000e+00 0 0 0
6137 444 4 1.7360000000000000e-02 9.3041000000000000e+00 1.4651900000000000e+00 7.1781499999999996e+00 0 0 0
6139 444 4 0.0000000000000000e+00 1.0149970000000000e+01 0.0000000000000000e+00 2.3926400000000001e+00 0 0 0
6141 444 4 0.0000000000000000e+00 8.4584100000000007e+00 0.0000000000000000e+00 4.7824499999999999e+00 0 0 0
6143 444 4 0.0000000000000000e+00 9.3040500000000002e+00 4.3955599999999997e+00 0.0000000000000000e+00 0 0 0
6145 444 4 1.7360000000000000e-02 9.3041000000000000e+00 4.3955599999999997e+00 7.1781600000000001e+00 0 0 0
6147 444 4 0.0000000000000000e+00 1.0149970000000000e+01 2.9303699999999999e+00 2.3926400000000001e+00 0 0 0
6149 444 4 0.0000000000000000e+00 8.4584200000000003e+00 2.9303699999999999e+00 4.7824400000000002e+00 0 0 0
6151 444 4 0.0000000000000000e+00 9.3040500000000002e+00 7.3259299999999996e+00 0.0000000000000000e+00 0 0 0
6153 444 4 1.7360000000000000e-02 9.3041000000000000e+00 7.3259299999999996e+00 7.1781499999999996e+00 0 0 0
6155 444 4 0.0000000000000000e+00 1.0149970000000000e+01 5.8607399999999998e+00 2.3926400000000001e+00 0 0 0
6157 444 4 0.0000000000000000e+00 8.4584100000000007e+00 5.8607399999999998e+00 4.7824499999999999e+00 0 0 0
6268 444 4 0.0000000000000000e+00 1.0996190000000000e+01 1.4651900000000000e+00 4.7824200000000001e+00 0 0 0
6276 444 4 0.0000000000000000e+00 1.0996190000000000e+01 4.3955599999999997e+00 4.7824499999999999e+00 0 0 0
6284 444 4 0.0000000000000000e+00 1.0996190000000000e+01 7.3259299999999996e+00 4.7824200000000001e+00 0 0 0
6159 444 4 0.0000000000000000e+00 9.3040500000000002e+00 1.0256300000000000e+01 0.0000000000000000e+00 0 0 0
6161 444 4 1.7360000000000000e-02 9.3041000000000000e+00 1.0256300000000000e+01 7.1781600000000001e+00 0 0 0
6163 444 4 0.0000000000000000e+00 1.0149970000000000e+01 8.7911099999999998e+00 2.3926400000000001e+00 0 0 0
6165 444 4 0.0000000000000000e+00 8.4584200000000003e+00 8.7911099999999998e+00 4.7824400000000002e+00 0 0 0
6292 444 4 0.0000000000000000e+00 1.0996190000000000e+01 1.0256300000000000e+01 4.7824499999999999e+00 0 0 0
6262 444 4 0.0000000000000000e+00 1.1841820000000000e+01 0.0000000000000000e+00 0.0000000000000000e+00 0 0 0
6263 444 4 0.0000000000000000e+00 1.4379600000000000e+01 1.4651900000000000e+00 0.0000000000000000e+00 0 0 0
6264 444 4 1.7360000000000000e-02 1.1841870000000000e+01 0.0000000000000000e+00 7.1781499999999996e+00 0 0 0
6265 444 4 1.7360000000000000e-02 1.4379650000000000e+01 1.4651900000000000e+00 7.1781499999999996e+00 0 0 0
6266 444 4 0.0000000000000000e+00 1.2687749999999999e+01 1.4651900000000000e+00 2.3926400000000001e+00 0 0 0
6267 444 4 0.0000000000000000e+00 1.5225519999999999e+01 0.0000000000000000e+00 2.3926400000000001e+00 0 0 0
6269 444 4 0.0000000000000000e+00 1.3533960000000000e+01 0.0000000000000000e+00 4.7824499999999999e+00 0 0 0
6270 444 4 0.0000000000000000e+00 1.1841820000000000e+01 2.9303699999999999e+00 0.0000000000000000e+00 0 0 0
6271 444 4 0.0000000000000000e+00 1.4379600000000000e+01 4.3955599999999997e+00 0.0000000000000000e+00 0 0 0
6272 444 4 1.7360000000000000e-02 1.1841870000000000e+01 2.9303699999999999e+00 7.1781899999999998e+00 0 0 0
6273 444 4 1.7360000000000000e-02 1.4379650000000000e+01 4.3955599999999997e+00 7.1781600000000001e+00 0 0 0
6274 444 4 0.0000000000000000e+00 1.2687749999999999e+01 4.3955599999999997e+00 2.3926400000000001e+00 0 0 0
6275 444 4 0.0000000000000000e+00 1.5225519999999999e+01 2.9303699999999999e+00 2.3926400000000001e+00 0 0 0
6277 444 4 0.0000000000000000e+00 1.3533970000000000e+01 2.9303699999999999e+00 4.7824400000000002e+00 0 0 0
6278 444 4 0.0000000000000000e+00 1.1841820000000000e+01 5.8607399999999998e+00 0.0000000000000000e+00 0 0 0
6279 444 4 0.0000000000000000e+00 1.4379600000000000e+01 7.3259299999999996e+00 0.0000000000000000e+00 0 0 0
6280 444 4 1.7360000000000000e-02 1.1841870000000000e+01 5.8607399999999998e+00 7.1781499999999996e+00 0 0 0
6281 444 4 1.7360000000000000e-02 1.4379650000000000e+01 7.3259299999999996e+00 7.1781499999999996e+00 0 0 0
6282 444 4 0.0000000000000000e+00 1.2687749999999999e+01 7.3259299999999996e+00 2.3926400000000001e+00 0 0 0
6283 444 4 0.0000000000000000e+00 1.5225519999999999e+01 5.8607399999999998e+00 2.3926400000000001e+00 0 0 0
6285 444 4 0.0000000000000000e+00 1.3533960000000000e+01 5.8607399999999998e+00 4.7824499999999999e+00 0 0 0
6286 444 4 0.0000000000000000e+00 1.1841820000000000e+01 8.7911099999999998e+00 0.0000000000000000e+00 0 0 0
6287 444 4 0.0000000000000000e+00 1.4379600000000000e+01 1.0256300000000000e+01 0.0000000000000000e+00 0 0 0
6288 444 4 1.7360000000000000e-02 1.1841870000000000e+01 8.7911099999999998e+00 7.1781899999999998e+00 0 0 0
6289 444 4 1.7360000000000000e-02 1.4379650000000000e+01 1.0256300000000000e+01 7.1781600000000001e+00 0 0 0
6290 444 4 0.0000000000000000e+00 1.2687749999999999e+01 1.0256300000000000e+01 2.3926400000000001e+00 0 0 0
6291 444 4 0.0000000000000000e+00 1.5225519999999999e+01 8.7911099999999998e+00 2.3926400000000001e+00 0 0 0
6293 444 4 0.0000000000000000e+00 1.3533970000000000e+01 8.7911099999999998e+00 4.7824400000000002e+00 0 0 0
2714 444 1 4.1499999999999998e-01 4.1427091240893166e+00 6.7856067725025344e+00 1.3067689256256383e+01 3 1 0
2713 444 2 -8.2999999999999996e-01 3.5020031203117132e+00 6.2792390808193970e+00 1.2568370280494953e+01 3 1 0
2715 444 1 4.1499999999999998e-01 2.6971636873205185e+00 6.7949914643095211e+00 1.2618016643625170e+01 3 1 0
3806 444 1 4.1499999999999998e-01 4.3933376893564944e+00 5.9086679692345943e+00 1.0890313740768519e+01 2 -1 0
3805 444 2 -8.2999999999999996e-01 4.6883359428277265e+00 5.4639396579373667e+00 1.0095691121303554e+01 2 -1 0
3665 444 1 4.1499999999999998e-01 3.4779209070012191e+00 3.0063408455796825e+00 1.1774162666620287e+01 -5 2 0
3807 444 1 4.1499999999999998e-01 4.5957217789320710e+00 4.5320503113736033e+00 1.0293774102431282e+01 2 -1 0
3666 444 1 4.1499999999999998e-01 2.7784140282071315e+00 3.4305542312393253e+00 1.0500338332111999e+01 -5 2 0
3664 444 2 -8.2999999999999996e-01 3.3991599405157138e+00 2.7887796214658960e+00 1.0845348358780200e+01 -5 2 0
5384 444 1 4.1499999999999998e-01 3.3849344186301806e+00 6.2074174771720330e+00 1.5394856290913429e+01 -3 1 0
5385 444 1 4.1499999999999998e-01 3.5531604363134757e+00 4.7494892998040790e+00 1.5023318082601776e+01 -3 1 0
186 444 1 4.1499999999999998e-01 6.5980632720174048e+00 2.8161274884259733e+00 1.1922110214905963e+01 3 -2 0
3714 444 1 4.1499999999999998e-01 5.2400850734037867e+00 8.5102004443079036e+00 1.0275397206058409e+01 -7 5 0
5383 444 2 -8.2999999999999996e-01 3.9002709831401594e+00 5.4279598133101716e+00 1.5602476039332407e+01 -3 1 0
742 444 2 -8.2999999999999996e-01 6.5405726838425853e+00 5.6020527441804360e+00 1.5504600064881306e+01 1 -4 0
744 444 1 4.1499999999999998e-01 6.7935392774366044e+00 4.7055533930371123e+00 1.5284308048899844e+01 1 -4 0
743 444 1 4.1499999999999998e-01 5.5850920745815520e+00 5.5761122025729319e+00 1.5555744575690207e+01 1 -4 0
3712 444 2 -8.2999999999999996e-01 6.0139433161250979e+00 8.0240378106140131e+00 9.9907550460763002e+00 -7 5 0
184 444 2 -8.2999999999999996e-01 6.9417611728819901e+00 2.6226083485795546e+00 1.1049955405253186e+01 3 -2 0
3713 444 1 4.1499999999999998e-01 5.6796834572229900e+00 7.1596411001070717e+00 9.7513381974954694e+00 -7 5 0
1432 444 2 -8.2999999999999996e-01 5.5393027393265912e+00 7.5566650203912626e+00 1.3856263204574265e+01 1 0 0
1433 444 1 4.1499999999999998e-01 6.3169609254793331e+00 7.1300967572369007e+00 1.4216151068029992e+01 1 0 0
5992 444 2 -8.2999999999999996e-01 6.9895799750195344e+00 2.7422572498213484e+00 1.5128616973471727e+01 5 1 0
5994 444 1 4.1499999999999998e-01 7.3801858066156516e+00 2.7831959490632912e+00 1.6001533229039179e+01 5 1 0
5993 444 1 4.1499999999999998e-01 6.4507977264940575e+00 1.9512328154697474e+00 1.5143646187233871e+01 5 1 0
1208 444 1 4.1499999999999998e-01 3.8374461813893821e+00 4.6317061835377817e+00 1.3185468108265594e+01 2 2 0
5487 444 1 4.1499999999999998e-01 3.5091798960955276e+00 9.9266378446575914e+00 1.1265256613190745e+01 -1 4 0
5485 444 2 -8.2999999999999996e-01 3.7494525357544775e+00 9.3663060427153226e+00 1.0527333678437762e+01 -1 4 0
1207 444 2 -8.2999999999999996e-01 4.0670413342611660e+00 3.7197562032182776e+00 1.3363978417224013e+01 2 2 0
1209 444 1 4.1499999999999998e-01 3.2704234230098428e+00 3.3398310922795824e+00 1.3734503561104621e+01 2 2 0
5486 444 1 4.1499999999999998e-01 2.9127842697771085e+00 9.0772484076321778e+00 1.0163101838496830e+01 -1 4 0
4966 444 2 -8.2999999999999996e-01 1.2157574746360200e+00 6.9322606890515344e+00 1.5612494977328863e+01 -5 0 0
3016 444 2 -8.2999999999999996e-01 1.1487108761149056e+00 8.5202615930932240e+00 1.0260436973196734e+01 -1 -3 0
4968 444 1 4.1499999999999998e-01 4.6375720879801058e-01 6.3697736469048074e+00 1.5427194541537833e+01 -5 0 0
4625 444 1 4.1499999999999998e-01 4.6337187158602582e+00 9.4426705006202705e-01 1.0904885636774599e+01 -6 1 0
5362 444 2 -8.2999999999999996e-01 1.4208850663475165e+00 2.9584386494689956e+00 1.4304096076231009e+01 6 5 0
3017 444 1 4.1499999999999998e-01 1.2124098914913204e+00 7.5725034075693403e+00 1.0378459145534991e+01 -1 -3 0
4624 444 2 -8.2999999999999996e-01 5.1457788843908929e+00 1.8153004747098755e-01 1.1173695760554862e+01 -6 1 0
491 444 1 4.1499999999999998e-01 8.6733385207254488e-01 4.8955857877438325e+00 1.1047158552846444e+01 -4 2 0
5303 444 1 4.1499999999999998e-01 1.7504538007692552e+00 1.4588830124069536e+00 1.0260910407785909e+01 1 -2 0
5363 444 1 4.1499999999999998e-01 1.5066074268159080e+00 2.5987842649276551e+00 1.5187007289973295e+01 6 5 0
3911 444 1 4.1499999999999998e-01 5.5474819732743370e+00 1.3332156373093182e-01 1.2886206795545844e+01 0 -1 0
1434 444 1 4.1499999999999998e-01 5.8374210047893316e+00 8.4329713004333939e+00 1.3612449686261108e+01 1 0 0
5846 444 1 4.1499999999999998e-01 6.4716685952763875e+00 1.0447483897668734e+01 1.3414781403196489e+01 -4 -3 0
5845 444 2 -8.2999999999999996e-01 5.8225444816097971e+00 1.0024256717746857e+01 1.2852865431856838e+01 -4 -3 0
1858 444 2 -8.2999999999999996e-01 1.5043151741521119e+00 1.3953228220912246e+00 1.6249424270045655e+01 0 -3 0
1297 444 2 -8.2999999999999996e-01 3.2404113908991392e+00 1.0488257346659113e+01 1.3372963044791211e+01 5 -4 0
1298 444 1 4.1499999999999998e-01 3.0139068447337425e+00 1.0971524839055613e+01 1.4167558062766055e+01 5 -4 0
5847 444 1 4.1499999999999998e-01 6.2103761729454137e+00 1.0048097613622140e+01 1.1978079522183377e+01 -4 -3 0
4361 444 1 4.1499999999999998e-01 7.2859217136809491e+00 9.6588390349821029e+00 1.0063317395086314e+01 -2 -2 0
3239 444 1 4.1499999999999998e-01 7.4984484758714327e+00 1.2649227012453159e+00 1.0510527675819731e+01 7 -2 0
4626 444 1 4.1499999999999998e-01 5.9948608275152422e+00 3.0037836813916574e-01 1.0748057570290591e+01 -6 1 0
143 444 1 4.1499999999999998e-01 1.4217442828243845e-01 5.8396309347578672e+00 1.2523054860947438e+01 -1 -1 0
5589 444 1 4.1499999999999998e-01 1.2306098629950113e+00 1.0036002928870323e+01 1.5090449572761688e+01 -2 4 0
5588 444 1 4.1499999999999998e-01 6.6428648257298517e-01 8.6416089272909389e+00 1.4926624644246537e+01 -2 4 0
3253 444 2 -8.2999999999999996e-01 2.4949170602714972e+00 1.1504531338716918e+01 1.5785453291532876e+01 3 3 0
490 444 2 -8.2999999999999996e-01 6.6327597171009545e-01 4.0239505615262390e+00 1.0708271658653524e+01 -4 2 0
5663 444 1 4.1499999999999998e-01 3.9223326920773860e+00 8.7633319729431740e+00 1.5484593464825711e+01 -1 -4 0
5587 444 2 -8.2999999999999996e-01 4.6944644931233442e-01 9.5628040906034677e+00 1.4754375283804698e+01 -2 4 0
4717 444 2 -8.2999999999999996e-01 5.1908530309428602e-01 8.7401937959808296e-01 1.2888629289791481e+01 3 0 0
142 444 2 -8.2999999999999996e-01 2.8441654360233615e-01 6.2735660496964849e+00 1.1681806166171205e+01 -1 -1 0
4130 444 1 4.1499999999999998e-01 4.6315359170931725e+00 1.1005075632529843e+01 1.0483922295525769e+01 2 -1 0
4719 444 1 4.1499999999999998e-01 5.4661639022967146e-01 9.9426724064635397e-01 1.1939411313577315e+01 3 0 0
5304 444 1 4.1499999999999998e-01 3.2882003904691731e-01 1.0763746756305936e+00 9.9080075296456371e+00 1 -2 0
1859 444 1 4.1499999999999998e-01 1.9017428331294846e+00 5.5296203929681409e-01 1.6028714877723100e+01 0 -3 0
4360 444 2 -8.2999999999999996e-01 7.4009650232257664e+00 1.0585256228369207e+01 1.0274855841764218e+01 -2 -2 0
1299 444 1 4.1499999999999998e-01 4.1923389577115966e+00 1.0395641165658011e+01 1.3411547478937123e+01 5 -4 0
3018 444 1 4.1499999999999998e-01 2.1079383220604503e-01 8.6882374111946987e+00 1.0169179936097850e+01 -1 -3 0
5708 444 1 4.1499999999999998e-01 1.7189919534210627e+00 1.0472084182240481e+01 1.0334369786096092e+01 0 2 0
5364 444 1 4.1499999999999998e-01 1.2597150246282895e+00 2.1955981765364956e+00 1.3748820939412560e+01 6 5 0
4362 444 1 4.1499999999999998e-01 6.5413660363275969e+00 1.0975876798632239e+01 1.0117573789260598e+01 -2 -2 0
5094 444 1 4.1499999999999998e-01 5.1857204551011382e-01 4.2159561281473472e+00 1.4020311612826005e+01 3 1 0
5302 444 2 -8.2999999999999996e-01 1.1821412561158142e+00 7.0077502153584836e-01 1.0124802885538942e+01 1 -2 0
5707 444 2 -8.2999999999999996e-01 1.9576452602409540e+00 1.1397663979872705e+01 1.0385148157158678e+01 0 2 0
185 444 1 4.1499999999999998e-01 7.6863534076146447e+00 3.2154907786367719e+00 1.0948442493937183e+01 3 -2 0
2282 444 1 4.1499999999999998e-01 8.3836281930168273e+00 1.0227200741662315e+01 1.4668698870331056e+01 -1 -1 0
3816 444 1 4.1499999999999998e-01 1.5006417802286640e+01 1.3359435637725714e+00 1.2661824134710489e+01 -4 1 0
1916 444 1 4.1499999999999998e-01 1.2865020727324000e+01 2.9121246943253156e-02 1.1680791486500228e+01 5 5 0
4163 444 1 4.1499999999999998e-01 1.1597295321352446e+01 1.0123220583379082e+01 1.5669931718919102e+01 -1 -3 0
2361 444 1 4.1499999999999998e-01 7.7139134903574540e+00 7.1912121186713094e+00 1.0250186337181029e+01 3 3 0
4545 444 1 4.1499999999999998e-01 8.3107879066970813e+00 3.7820716566396984e+00 1.3835650214379855e+01 -1 -3 0
2359 444 2 -8.2999999999999996e-01 8.5587129567370646e+00 6.7537212324691396e+00 1.0144603280922826e+01 3 3 0
3297 444 1 4.1499999999999998e-01 8.8644972751551716e+00 3.4643841797313391e-01 1.4854027295118154e+01 -6 1 0
2360 444 1 4.1499999999999998e-01 9.2061772387658092e+00 7.4369907299067028e+00 1.0318286614420879e+01 3 3 0
2313 444 1 4.1499999999999998e-01 9.1959668073220726e+00 4.1875737440879037e+00 1.1415221289057376e+01 -1 -3 0
3683 444 1 4.1499999999999998e-01 1.2143791017777547e+01 4.0526735848880922e+00 1.0977623462185282e+01 1 -3 0
909 444 1 4.1499999999999998e-01 1.2792307817979074e+01 8.9270273897341124e+00 1.0694278794524626e+01 2 -1 0
2311 444 2 -8.2999999999999996e-01 9.3393326700424151e+00 4.1462190750788244e+00 1.0469722543887952e+01 -1 -3 0
4686 444 1 4.1499999999999998e-01 9.4601464115714560e+00 9.5064023033818241e+00 1.0492653059533449e+01 2 -4 0
4685 444 1 4.1499999999999998e-01 1.0934971085966406e+01 9.1830195208481431e+00 1.0382150694067080e+01 2 -4 0
3240 444 1 4.1499999999999998e-01 8.6114642321524215e+00 2.8402982528982357e-01 1.0208964740699143e+01 7 -2 0
4684 444 2 -8.2999999999999996e-01 1.0108121841191723e+01 8.8399109441283628e+00 1.0721014448246562e+01 2 -4 0
644 444 1 4.1499999999999998e-01 8.6542146943697755e+00 7.8851481500787681e+00 1.5622830687526791e+01 -4 -6 0
643 444 2 -8.2999999999999996e-01 8.8939669706328406e+00 6.9672086463573866e+00 1.5749866918170351e+01 -4 -6 0
3204 444 1 4.1499999999999998e-01 1.3353274947473309e+01 7.3097386188462741e+00 1.2084472999084545e+01 0 3 0
3203 444 1 4.1499999999999998e-01 1.2986076401458750e+01 6.5176326274341179e+00 1.0847691517674802e+01 0 3 0
3202 444 2 -8.2999999999999996e-01 1.3277360589245596e+01 7.3835992425852126e+00 1.1133151058130968e+01 0 3 0
907 444 2 -8.2999999999999996e-01 1.2525893130625244e+01 9.6630559232841140e+00 1.0143355018035429e+01 2 -1 0
2312 444 1 4.1499999999999998e-01 8.9868412122059471e+00 4.9716997017045985e+00 1.0137211842435651e+01 -1 -3 0
3238 444 2 -8.2999999999999996e-01 7.6581131380783969e+00 3.5638651378487879e-01 1.0254986928007355e+01 7 -2 0
3682 444 2 -8.2999999999999996e-01 1.2010554575881395e+01 4.9546780203908440e+00 1.0686302723943701e+01 1 -3 0
3684 444 1 4.1499999999999998e-01 1.1072035352037577e+01 5.0129272211042517e+00 1.0507359965101182e+01 1 -3 0
645 444 1 4.1499999999999998e-01 8.0610212493625344e+00 6.5202285769409416e+00 1.5900342269061968e+01 -4 -6 0
908 444 1 4.1499999999999998e-01 1.3341657794323472e+01 1.0124044474936218e+01 9.9477804606300140e+00 2 -1 0
5403 444 1 4.1499999999999998e-01 1.4114364022252682e+01 5.3832692431000959e+00 1.4154474412825785e+01 -2 1 0
3308 444 1 4.1499999999999998e-01 1.0830232520544143e+01 2.4721217608631192e+00 1.0652779176373919e+01 -3 -2 0
4543 444 2 -8.2999999999999996e-01 9.0185712080951852e+00 4.1412895572461634e+00 1.3300638363741564e+01 -1 -3 0
4544 444 1 4.1499999999999998e-01 9.7407330339028420e+00 4.2728462999075250e+00 1.3914973622423281e+01 -1 -3 0
2031 444 1 4.1499999999999998e-01 1.0316704221133371e+01 2.3007812904500793e+00 1.5756439472692763e+01 0 0 0
5402 444 1 4.1499999999999998e-01 1.3562035899491628e+01 6.6702676551372724e+00 1.4729334565461155e+01 -2 1 0
2029 444 2 -8.2999999999999996e-01 1.0148784467459631e+01 1.3958036415062467e+00 1.5493663890527005e+01 0 0 0
4060 444 2 -8.2999999999999996e-01 1.0829684655806624e+01 3.9891251433829220e+00 1.5481280011362500e+01 -3 3 0
4062 444 1 4.1499999999999998e-01 1.1507121233776077e+01 4.4130059467308493e+00 1.4954366950716938e+01 -3 3 0
2030 444 1 4.1499999999999998e-01 1.0549153670764268e+01 8.6723156401464618e-01 1.6183988381392421e+01 0 0 0
3309 444 1 4.1499999999999998e-01 1.1632897604288274e+01 1.9166317285626970e+00 1.1809954774921819e+01 -3 -2 0
5401 444 2 -8.2999999999999996e-01 1.3302044530144782e+01 5.7909101376950485e+00 1.4454804560857575e+01 -2 1 0
3307 444 2 -8.2999999999999996e-01 1.1725737814470110e+01 2.3818939476587904e+00 1.0978603450256207e+01 -3 -2 0
646 444 2 -8.2999999999999996e-01 1.3157353308785185e+01 8.8246749548128616e+00 1.4218331615179453e+01 0 3 0
1302 444 1 4.1499999999999998e-01 1.4063141157513570e+01 3.9461059948900870e+00 1.0393394151039210e+01 3 -5 0
648 444 1 4.1499999999999998e-01 1.3363517183915803e+01 9.6720305486234199e+00 1.3823721952386510e+01 0 3 0
647 444 1 4.1499999999999998e-01 1.2365654016744767e+01 8.5350570763285791e+00 1.3764938202055609e+01 0 3 0
3421 444 2 -8.2999999999999996e-01 1.0848206975864501e+01 8.3812414580353636e+00 1.3336105044435339e+01 1 -3 0
3423 444 1 4.1499999999999998e-01 1.0105444017653992e+01 8.7073951462335994e+00 1.3844198902723356e+01 1 -3 0
3088 444 2 -8.2999999999999996e-01 1.3637506475712705e+01 1.1063084036182978e+01 1.2808915074569207e+01 -4 0 0
2085 444 1 4.1499999999999998e-01 1.1348890406188366e+01 1.2352791328759574e+00 1.3836002610235754e+01 1 -1 0
2083 444 2 -8.2999999999999996e-01 1.1954830485508051e+01 9.2088072717828684e-01 1.3165016738507138e+01 1 -1 0
3422 444 1 4.1499999999999998e-01 1.0563995246572890e+01 8.4496030808250016e+00 1.2424632137267658e+01 1 -3 0
2084 444 1 4.1499999999999998e-01 1.2585882508778612e+01 3.8384047840068952e-01 1.3644175150223578e+01 1 -1 0
2281 444 2 -8.2999999999999996e-01 9.0180851174070504e+00 9.5756034745015306e+00 1.4967223826237166e+01 -1 -1 0
4050 444 1 4.1499999999999998e-01 1.4978090773805686e+01 7.0496251765014897e+00 1.0533698850705358e+01 -4 -2 0
447 444 1 4.1499999999999998e-01 1.3517399233457517e+01 8.6787714253909467e+00 1.5930338856418613e+01 -1 3 0
1300 444 2 -8.2999999999999996e-01 1.4997275772167525e+01 4.0942604598019168e+00 1.0540617173597413e+01 3 -5 0
4424 444 1 4.1499999999999998e-01 1.3303654107670283e+01 2.0169588837229186e+00 1.5857719567711936e+01 4 5 0
4162 444 2 -8.2999999999999996e-01 1.1060167916368917e+01 1.0912201948790894e+01 1.5742280525218483e+01 -1 -3 0
3634 444 2 -8.2999999999999996e-01 1.0196819838576198e+01 1.6869088780661856e-01 1.0484229872872170e+01 0 -3 0
2283 444 1 4.1499999999999998e-01 9.6779908959759062e+00 1.0082399374272809e+01 1.5440419482412267e+01 -1 -1 0
3636 444 1 4.1499999999999998e-01 1.0961580429830390e+01 1.8707838733024931e-01 9.9088733811458702e+00 0 -3 0
1917 444 1 4.1499999999999998e-01 1.4034298662569727e+01 2.9352808099603039e-01 1.0756251796850602e+01 5 5 0
4164 444 1 4.1499999999999998e-01 1.1362869300593594e+01 1.1474795189532427e+01 1.5029474416722609e+01 -1 -3 0
1301 444 1 4.1499999999999998e-01 1.5166987020603678e+01 4.9550444659508139e+00 1.0157889008934012e+01 3 -5 0
3090 444 1 4.1499999999999998e-01 1.3456230095134353e+01 1.1032491576029690e+01 1.1869534800897485e+01 -4 0 0
3815 444 1 4.1499999999999998e-01 1.4547341769067758e+01 9.1705794595227930e-01 1.4042287588976690e+01 -4 1 0
3814 444 2 -8.2999999999999996e-01 1.5122963970416620e+01 1.5344483983788084e+00 1.3590933840024011e+01 -4 1 0
488 444 1 4.1499999999999998e-01 1.5003897892463034e+01 4.2681766308790801e+00 1.2354593111943998e+01 0 2 0
1009 444 2 -8.2999999999999996e-01 4.5468044255393636e-02 2.8585453103783647e+00 2.3867015776374359e+01 2 -3 0
3891 444 1 4.1499999999999998e-01 9.3884199458302608e-01 4.9636723956912974e+00 2.4199528609947624e+01 -4 -4 0
2205 444 1 4.1499999999999998e-01 5.9710783409945310e-02 6.4586238106300184e+00 1.7723848357587105e+01 2 -1 0
5664 444 1 4.1499999999999998e-01 4.5061584430433888e+00 9.2154501960783737e+00 1.6806195453422639e+01 -1 -4 0
5662 444 2 -8.2999999999999996e-01 3.7682109157973831e+00 8.7365633888658891e+00 1.6428924923769895e+01 -1 -4 0
4967 444 1 4.1499999999999998e-01 1.5745777338790707e+00 6.5910725034932653e+00 1.6431684346266863e+01 -5 0 0
2075 444 1 4.1499999999999998e-01 7.0375175249171731e+00 1.1036389258577674e-01 1.9269302098496663e+01 1 4 0
954 444 1 4.1499999999999998e-01 3.4121229777998616e+00 4.3311173989421157e+00 2.2366336859747840e+01 2 1 0
581 444 1 4.1499999999999998e-01 2.3655427513042384e+00 5.7150628645948052e+00 1.8173041157064720e+01 -1 -6 0
1647 444 1 4.1499999999999998e-01 1.6121528698612175e+00 2.5730251880351993e+00 1.9404564211536773e+01 2 3 0
606 444 1 4.1499999999999998e-01 5.9171937032156512e+00 2.2139224285974604e+00 1.9501918139475624e+01 7 -1 0
5651 444 1 4.1499999999999998e-01 3.6547108867502458e+00 1.9959705558457799e+00 1.8838285334342821e+01 0 -2 0
1576 444 2 -8.2999999999999996e-01 5.1943457741569032e+00 2.9658824907865253e+00 1.8229537893226514e+01 1 1 0
582 444 1 4.1499999999999998e-01 1.3385474077762243e+00 4.6219402918303132e+00 1.8378610665017654e+01 -1 -6 0
2383 444 2 -8.2999999999999996e-01 4.5393702815737713e+00 5.4682773431422982e+00 1.8502546148408037e+01 1 4 0
2384 444 1 4.1499999999999998e-01 4.4172419117737638e+00 5.8991323517175394e+00 1.7656566980376635e+01 1 4 0
1578 444 1 4.1499999999999998e-01 4.8038570934245808e+00 3.8394555080842143e+00 1.8204627228027647e+01 1 1 0
2385 444 1 4.1499999999999998e-01 5.1843666688916841e+00 6.0102206817805408e+00 1.8956980335316558e+01 1 4 0
5650 444 2 -8.2999999999999996e-01 2.8504496171849580e+00 1.4841758788681896e+00 1.8751896023725440e+01 0 -2 0
5652 444 1 4.1499999999999998e-01 2.9365305373828803e+00 7.8980351456583153e-01 1.9405095361433453e+01 0 -2 0
1577 444 1 4.1499999999999998e-01 5.9412347135756534e+00 3.0197801272537648e+00 1.7633313327878376e+01 1 1 0
5880 444 1 4.1499999999999998e-01 5.9543163730053639e+00 6.3012352841808612e+00 2.2468185199915055e+01 -2 -1 0
1194 444 1 4.1499999999999998e-01 3.0116726087651697e+00 6.9835691203004755e+00 2.2543154222156083e+01 2 3 0
1193 444 1 4.1499999999999998e-01 2.7705025736267173e+00 5.9748246991786331e+00 2.3645953779484682e+01 2 3 0
1192 444 2 -8.2999999999999996e-01 3.4491194937536584e+00 6.3047069726319789e+00 2.3056981262086186e+01 2 3 0
604 444 2 -8.2999999999999996e-01 6.0172220206688731e+00 1.6687610406707298e+00 2.0282318828390054e+01 7 -1 0
605 444 1 4.1499999999999998e-01 6.4183097871419212e+00 2.2482320189169460e+00 2.0930064021473992e+01 7 -1 0
580 444 2 -8.2999999999999996e-01 1.5485831684729818e+00 5.3670711386296448e+00 1.7815673814897895e+01 -1 -6 0
4628 444 1 4.1499999999999998e-01 2.7236326958027162e+00 8.6484096924294107e+00 1.7840470437877013e+01 1 0 0