LAMMPS data file via write_data, version 11 Aug 2017, timestep = 5000000

7176 atoms
4 atom types
4000 bonds
1 bond types
2000 angles
1 angle types

0.0000000000000000e+00 4.5679949999999998e+01 xlo xhi
0.0000000000000000e+00 4.6885919999999999e+01 ylo yhi
0.0000000000000000e+00 6.5000000000000000e+01 zlo zhi

Masses

1 1.0079
2 15.9994
3 18.9984
4 107.868

Bond Coeffs # harmonic

1 450 0.9572

Angle Coeffs # harmonic

1 55 104.52

Atoms # full

6025 444 4 0.0000000000000000e+00 1.6907200000000000e+00 0.0000000000000000e+00 0.0000000000000000e+00 0 0 0
6026 444 4 0.0000000000000000e+00 4.2285000000000004e+00 1.4651900000000000e+00 0.0000000000000000e+00 0 0 0
6027 444 4 8.4290000000000004e-02 1.6907700000000001e+00 0.0000000000000000e+00 7.1781499999999996e+00 0 0 0
6028 444 4 8.3330000000000001e-02 4.2285500000000003e+00 1.4651900000000000e+00 7.1781499999999996e+00 0 0 0
6029 444 4 0.0000000000000000e+00 2.5366499999999998e+00 1.4651900000000000e+00 2.3926400000000001e+00 0 0 0
6030 444 4 0.0000000000000000e+00 5.0744199999999999e+00 0.0000000000000000e+00 2.3926400000000001e+00 0 0 0
6031 444 4 0.0000000000000000e+00 8.4509000000000001e-01 1.4651900000000000e+00 4.7824200000000001e+00 0 0 0
6032 444 4 0.0000000000000000e+00 3.3828600000000000e+00 0.0000000000000000e+00 4.7824499999999999e+00 0 0 0
6033 444 4 0.0000000000000000e+00 1.6907200000000000e+00 2.9303699999999999e+00 0.0000000000000000e+00 0 0 0
6034 444 4 0.0000000000000000e+00 4.2285000000000004e+00 4.3955599999999997e+00 0.0000000000000000e+00 0 0 0
6035 444 4 8.3330000000000001e-02 1.6907700000000001e+00 2.9303699999999999e+00 7.1781899999999998e+00 0 0 0
6036 444 4 8.3330000000000001e-02 4.2285500000000003e+00 4.3955599999999997e+00 7.1781600000000001e+00 0 0 0
6037 444 4 0.0000000000000000e+00 2.5366499999999998e+00 4.3955599999999997e+00 2.3926400000000001e+00 0 0 0
6038 444 4 0.0000000000000000e+00 5.0744199999999999e+00 2.9303699999999999e+00 2.3926400000000001e+00 0 0 0
6039 444 4 0.0000000000000000e+00 8.4509000000000001e-01 4.3955599999999997e+00 4.7824499999999999e+00 0 0 0
6040 444 4 0.0000000000000000e+00 3.3828700000000000e+00 2.9303699999999999e+00 4.7824400000000002e+00 0 0 0
6041 444 4 0.0000000000000000e+00 1.6907200000000000e+00 5.8607399999999998e+00 0.0000000000000000e+00 0 0 0
6042 444 4 0.0000000000000000e+00 4.2285000000000004e+00 7.3259299999999996e+00 0.0000000000000000e+00 0 0 0
6043 444 4 8.3330000000000001e-02 1.6907700000000001e+00 5.8607399999999998e+00 7.1781499999999996e+00 0 0 0
6044 444 4 8.3330000000000001e-02 4.2285500000000003e+00 7.3259299999999996e+00 7.1781499999999996e+00 0 0 0
6045 444 4 0.0000000000000000e+00 2.5366499999999998e+00 7.3259299999999996e+00 2.3926400000000001e+00 0 0 0
6046 444 4 0.0000000000000000e+00 5.0744199999999999e+00 5.8607399999999998e+00 2.3926400000000001e+00 0 0 0
6047 444 4 0.0000000000000000e+00 8.4509000000000001e-01 7.3259299999999996e+00 4.7824200000000001e+00 0 0 0
6048 444 4 0.0000000000000000e+00 3.3828600000000000e+00 5.8607399999999998e+00 4.7824499999999999e+00 0 0 0
6153 444 4 0.0000000000000000e+00 6.7662699999999996e+00 0.0000000000000000e+00 0.0000000000000000e+00 0 0 0
6155 444 4 8.3330000000000001e-02 6.7663200000000003e+00 0.0000000000000000e+00 7.1781499999999996e+00 0 0 0
6157 444 4 0.0000000000000000e+00 7.6121999999999996e+00 1.4651900000000000e+00 2.3926400000000001e+00 0 0 0
6159 444 4 0.0000000000000000e+00 5.9206399999999997e+00 1.4651900000000000e+00 4.7824200000000001e+00 0 0 0
6161 444 4 0.0000000000000000e+00 6.7662699999999996e+00 2.9303699999999999e+00 0.0000000000000000e+00 0 0 0
6163 444 4 8.3330000000000001e-02 6.7663200000000003e+00 2.9303699999999999e+00 7.1781899999999998e+00 0 0 0
6165 444 4 0.0000000000000000e+00 7.6121999999999996e+00 4.3955599999999997e+00 2.3926400000000001e+00 0 0 0
6167 444 4 0.0000000000000000e+00 5.9206399999999997e+00 4.3955599999999997e+00 4.7824499999999999e+00 0 0 0
6169 444 4 0.0000000000000000e+00 6.7662699999999996e+00 5.8607399999999998e+00 0.0000000000000000e+00 0 0 0
6171 444 4 8.3330000000000001e-02 6.7663200000000003e+00 5.8607399999999998e+00 7.1781499999999996e+00 0 0 0
6173 444 4 0.0000000000000000e+00 7.6121999999999996e+00 7.3259299999999996e+00 2.3926400000000001e+00 0 0 0
6175 444 4 0.0000000000000000e+00 5.9206399999999997e+00 7.3259299999999996e+00 4.7824200000000001e+00 0 0 0
6049 444 4 0.0000000000000000e+00 1.6907200000000000e+00 8.7911099999999998e+00 0.0000000000000000e+00 0 0 0
6050 444 4 0.0000000000000000e+00 4.2285000000000004e+00 1.0256300000000000e+01 0.0000000000000000e+00 0 0 0
6051 444 4 8.3330000000000001e-02 1.6907700000000001e+00 8.7911099999999998e+00 7.1781899999999998e+00 0 0 0
6052 444 4 8.3330000000000001e-02 4.2285500000000003e+00 1.0256300000000000e+01 7.1781600000000001e+00 0 0 0
6053 444 4 0.0000000000000000e+00 2.5366499999999998e+00 1.0256300000000000e+01 2.3926400000000001e+00 0 0 0
6054 444 4 0.0000000000000000e+00 5.0744199999999999e+00 8.7911099999999998e+00 2.3926400000000001e+00 0 0 0
6055 444 4 0.0000000000000000e+00 8.4509000000000001e-01 1.0256300000000000e+01 4.7824499999999999e+00 0 0 0
6056 444 4 0.0000000000000000e+00 3.3828700000000000e+00 8.7911099999999998e+00 4.7824400000000002e+00 0 0 0
6177 444 4 0.0000000000000000e+00 6.7662699999999996e+00 8.7911099999999998e+00 0.0000000000000000e+00 0 0 0
6179 444 4 8.3330000000000001e-02 6.7663200000000003e+00 8.7911099999999998e+00 7.1781899999999998e+00 0 0 0
6181 444 4 0.0000000000000000e+00 7.6121999999999996e+00 1.0256300000000000e+01 2.3926400000000001e+00 0 0 0
6183 444 4 0.0000000000000000e+00 5.9206399999999997e+00 1.0256300000000000e+01 4.7824499999999999e+00 0 0 0
6154 444 4 0.0000000000000000e+00 9.3040500000000002e+00 1.4651900000000000e+00 0.0000000000000000e+00 0 0 0
6156 444 4 8.3330000000000001e-02 9.3041000000000000e+00 1.4651900000000000e+00 7.1781499999999996e+00 0 0 0
6158 444 4 0.0000000000000000e+00 1.0149970000000000e+01 0.0000000000000000e+00 2.3926400000000001e+00 0 0 0
6160 444 4 0.0000000000000000e+00 8.4584100000000007e+00 0.0000000000000000e+00 4.7824499999999999e+00 0 0 0
6162 444 4 0.0000000000000000e+00 9.3040500000000002e+00 4.3955599999999997e+00 0.0000000000000000e+00 0 0 0
6164 444 4 8.3330000000000001e-02 9.3041000000000000e+00 4.3955599999999997e+00 7.1781600000000001e+00 0 0 0
6166 444 4 0.0000000000000000e+00 1.0149970000000000e+01 2.9303699999999999e+00 2.3926400000000001e+00 0 0 0
6168 444 4 0.0000000000000000e+00 8.4584200000000003e+00 2.9303699999999999e+00 4.7824400000000002e+00 0 0 0
6170 444 4 0.0000000000000000e+00 9.3040500000000002e+00 7.3259299999999996e+00 0.0000000000000000e+00 0 0 0
6172 444 4 8.3330000000000001e-02 9.3041000000000000e+00 7.3259299999999996e+00 7.1781499999999996e+00 0 0 0
6174 444 4 0.0000000000000000e+00 1.0149970000000000e+01 5.8607399999999998e+00 2.3926400000000001e+00 0 0 0
6176 444 4 0.0000000000000000e+00 8.4584100000000007e+00 5.8607399999999998e+00 4.7824499999999999e+00 0 0 0
6287 444 4 0.0000000000000000e+00 1.0996190000000000e+01 1.4651900000000000e+00 4.7824200000000001e+00 0 0 0
6295 444 4 0.0000000000000000e+00 1.0996190000000000e+01 4.3955599999999997e+00 4.7824499999999999e+00 0 0 0
6303 444 4 0.0000000000000000e+00 1.0996190000000000e+01 7.3259299999999996e+00 4.7824200000000001e+00 0 0 0
6281 444 4 0.0000000000000000e+00 1.1841820000000000e+01 0.0000000000000000e+00 0.0000000000000000e+00 0 0 0
6282 444 4 0.0000000000000000e+00 1.4379600000000000e+01 1.4651900000000000e+00 0.0000000000000000e+00 0 0 0
6283 444 4 8.3330000000000001e-02 1.1841870000000000e+01 0.0000000000000000e+00 7.1781499999999996e+00 0 0 0
6284 444 4 8.3330000000000001e-02 1.4379650000000000e+01 1.4651900000000000e+00 7.1781499999999996e+00 0 0 0
6285 444 4 0.0000000000000000e+00 1.2687749999999999e+01 1.4651900000000000e+00 2.3926400000000001e+00 0 0 0
6286 444 4 0.0000000000000000e+00 1.5225519999999999e+01 0.0000000000000000e+00 2.3926400000000001e+00 0 0 0
6288 444 4 0.0000000000000000e+00 1.3533960000000000e+01 0.0000000000000000e+00 4.7824499999999999e+00 0 0 0
6289 444 4 0.0000000000000000e+00 1.1841820000000000e+01 2.9303699999999999e+00 0.0000000000000000e+00 0 0 0
6290 444 4 0.0000000000000000e+00 1.4379600000000000e+01 4.3955599999999997e+00 0.0000000000000000e+00 0 0 0
6291 444 4 8.3330000000000001e-02 1.1841870000000000e+01 2.9303699999999999e+00 7.1781899999999998e+00 0 0 0
6292 444 4 8.3330000000000001e-02 1.4379650000000000e+01 4.3955599999999997e+00 7.1781600000000001e+00 0 0 0
6293 444 4 0.0000000000000000e+00 1.2687749999999999e+01 4.3955599999999997e+00 2.3926400000000001e+00 0 0 0
6294 444 4 0.0000000000000000e+00 1.5225519999999999e+01 2.9303699999999999e+00 2.3926400000000001e+00 0 0 0
6296 444 4 0.0000000000000000e+00 1.3533970000000000e+01 2.9303699999999999e+00 4.7824400000000002e+00 0 0 0
6297 444 4 0.0000000000000000e+00 1.1841820000000000e+01 5.8607399999999998e+00 0.0000000000000000e+00 0 0 0
6298 444 4 0.0000000000000000e+00 1.4379600000000000e+01 7.3259299999999996e+00 0.0000000000000000e+00 0 0 0
6299 444 4 8.3330000000000001e-02 1.1841870000000000e+01 5.8607399999999998e+00 7.1781499999999996e+00 0 0 0
6300 444 4 8.3330000000000001e-02 1.4379650000000000e+01 7.3259299999999996e+00 7.1781499999999996e+00 0 0 0
6301 444 4 0.0000000000000000e+00 1.2687749999999999e+01 7.3259299999999996e+00 2.3926400000000001e+00 0 0 0
6302 444 4 0.0000000000000000e+00 1.5225519999999999e+01 5.8607399999999998e+00 2.3926400000000001e+00 0 0 0
6304 444 4 0.0000000000000000e+00 1.3533960000000000e+01 5.8607399999999998e+00 4.7824499999999999e+00 0 0 0
6178 444 4 0.0000000000000000e+00 9.3040500000000002e+00 1.0256300000000000e+01 0.0000000000000000e+00 0 0 0
6180 444 4 8.3330000000000001e-02 9.3041000000000000e+00 1.0256300000000000e+01 7.1781600000000001e+00 0 0 0
6182 444 4 0.0000000000000000e+00 1.0149970000000000e+01 8.7911099999999998e+00 2.3926400000000001e+00 0 0 0
6184 444 4 0.0000000000000000e+00 8.4584200000000003e+00 8.7911099999999998e+00 4.7824400000000002e+00 0 0 0
6311 444 4 0.0000000000000000e+00 1.0996190000000000e+01 1.0256300000000000e+01 4.7824499999999999e+00 0 0 0
6305 444 4 0.0000000000000000e+00 1.1841820000000000e+01 8.7911099999999998e+00 0.0000000000000000e+00 0 0 0
6306 444 4 0.0000000000000000e+00 1.4379600000000000e+01 1.0256300000000000e+01 0.0000000000000000e+00 0 0 0
6307 444 4 8.3330000000000001e-02 1.1841870000000000e+01 8.7911099999999998e+00 7.1781899999999998e+00 0 0 0
6308 444 4 8.3330000000000001e-02 1.4379650000000000e+01 1.0256300000000000e+01 7.1781600000000001e+00 0 0 0
6309 444 4 0.0000000000000000e+00 1.2687749999999999e+01 1.0256300000000000e+01 2.3926400000000001e+00 0 0 0
6310 444 4 0.0000000000000000e+00 1.5225519999999999e+01 8.7911099999999998e+00 2.3926400000000001e+00 0 0 0
6312 444 4 0.0000000000000000e+00 1.3533970000000000e+01 8.7911099999999998e+00 4.7824400000000002e+00 0 0 0
5874 444 1 4.1499999999999998e-01 6.3228266887467335e+00 5.3480096920139308e+00 9.9163135973849901e+00 0 2 0
5873 444 1 4.1499999999999998e-01 6.8422120457582505e+00 3.9876030026588691e+00 1.0330352190670009e+01 0 2 0
2988 444 1 4.1499999999999998e-01 4.6335079980152329e+00 2.3582869455091893e+00 9.7081831950873312e+00 1 0 0
5872 444 2 -8.2999999999999996e-01 7.1232602187831944e+00 4.8884475571400436e+00 1.0169968622626145e+01 0 2 0
2986 444 2 -8.2999999999999996e-01 5.3918589830875572e+00 2.6718318622446922e+00 1.0200956215876523e+01 1 0 0
2987 444 1 4.1499999999999998e-01 6.0718735608457086e+00 2.0186216277799915e+00 1.0036249067321561e+01 1 0 0
703 444 2 -8.2999999999999996e-01 2.4142354173220966e+00 5.0731255342681214e+00 1.0556588998346692e+01 0 -1 0
554 444 1 4.1499999999999998e-01 4.7096917371310445e+00 7.1025966593696541e+00 1.0147230638722140e+01 -1 1 0
555 444 1 4.1499999999999998e-01 3.9727005478040449e+00 5.7825099296501863e+00 1.0225398648568721e+01 -1 1 0
553 444 2 -8.2999999999999996e-01 4.7114215714305905e+00 6.2126721951442985e+00 9.7947206184594364e+00 -1 1 0
705 444 1 4.1499999999999998e-01 2.2111442010589180e+00 4.2111739504806049e+00 1.0193235023089409e+01 0 -1 0
5494 444 2 -8.2999999999999996e-01 1.5631585570580186e+00 2.4373823127918497e+00 1.0238707998955224e+01 -1 1 0
5495 444 1 4.1499999999999998e-01 1.7142897388470111e+00 2.2064181855088383e+00 1.1155248710874469e+01 -1 1 0
5496 444 1 4.1499999999999998e-01 1.9876500835371425e+00 1.7379859658429377e+00 9.7418341690839760e+00 -1 1 0
3316 444 2 -8.2999999999999996e-01 2.1191493855294024e+00 5.1289326076804373e+00 1.3601075422396566e+01 2 3 0
3318 444 1 4.1499999999999998e-01 1.2667995527174842e+00 4.7043280341235905e+00 1.3698250530226924e+01 2 3 0
3317 444 1 4.1499999999999998e-01 2.3502601229826872e+00 4.9956281350847043e+00 1.2681809212412579e+01 2 3 0
4231 444 2 -8.2999999999999996e-01 3.5670355598005221e+00 8.5246119788616141e+00 1.0629115203582941e+01 2 3 0
4232 444 1 4.1499999999999998e-01 3.6102471854993450e+00 9.4526052734110770e+00 1.0398478920369424e+01 2 3 0
4233 444 1 4.1499999999999998e-01 2.6306307998088694e+00 8.3290667618712622e+00 1.0662880431531503e+01 2 3 0
1573 444 2 -8.2999999999999996e-01 3.5053266156424630e+00 2.1096525886960222e+00 1.2321912854262640e+01 -1 1 0
1574 444 1 4.1499999999999998e-01 3.3935984232012344e+00 1.3351810998703451e+00 1.2873222738755199e+01 -1 1 0
3421 444 2 -8.2999999999999996e-01 5.4974146535068513e+00 8.9856631225015011e+00 1.3138072669372836e+01 3 3 0
3423 444 1 4.1499999999999998e-01 5.0425930508404235e+00 9.0829520327198754e+00 1.2301469961668069e+01 3 3 0
5550 444 1 4.1499999999999998e-01 5.0655012658313483e+00 3.9694425885353137e+00 1.2848952497609117e+01 -2 1 0
5549 444 1 4.1499999999999998e-01 6.3914996638402073e+00 4.6046513319576841e+00 1.3209693445620321e+01 -2 1 0
3422 444 1 4.1499999999999998e-01 5.2508132954725406e+00 8.1132816517583564e+00 1.3445270158565858e+01 3 3 0
3176 444 1 4.1499999999999998e-01 6.8940118425084371e+00 9.4844613183125812e+00 1.0444425023977354e+01 2 0 0
3177 444 1 4.1499999999999998e-01 5.6912329482478796e+00 1.0371834617738857e+01 1.0204035588743039e+01 2 0 0
3175 444 2 -8.2999999999999996e-01 6.6432959855679616e+00 1.0345073084946410e+01 1.0108684929805101e+01 2 0 0
5548 444 2 -8.2999999999999996e-01 5.4735661083189298e+00 4.8144913003168384e+00 1.3037652811137807e+01 -2 1 0
3251 444 1 4.1499999999999998e-01 4.7524344685053279e+00 6.2161368283524308e+00 1.3416106569532884e+01 2 -3 0
3250 444 2 -8.2999999999999996e-01 4.2327596074558729e+00 6.9751068379148773e+00 1.3680935902340424e+01 2 -3 0
3252 444 1 4.1499999999999998e-01 3.3770958196971326e+00 6.8331668224491473e+00 1.3276059820941473e+01 2 -3 0
506 444 1 4.1499999999999998e-01 6.9296549753967982e+00 6.7053638638116562e+00 1.1114940873875435e+01 0 -1 0
505 444 2 -8.2999999999999996e-01 7.2060520380840591e+00 7.6126630889856539e+00 1.0985926539145282e+01 0 -1 0
704 444 1 4.1499999999999998e-01 1.7511888608383237e+00 5.6534727156652620e+00 1.0182691714321027e+01 0 -1 0
1575 444 1 4.1499999999999998e-01 4.2803413698752371e+00 1.9184374718479871e+00 1.1793688441751778e+01 -1 1 0
1380 444 1 4.1499999999999998e-01 6.0602373781827967e-01 7.7303714955608784e+00 9.6997834839310126e+00 2 6 0
4749 444 1 4.1499999999999998e-01 4.9766620941853459e+00 4.4975532361370857e-01 1.4787610463993138e+01 -1 1 0
3723 444 1 4.1499999999999998e-01 5.6382991337194621e+00 1.0609048201208063e+01 1.3948628290998764e+01 1 1 0
5297 444 1 4.1499999999999998e-01 4.2374416980974466e-01 1.5261671883947154e+00 1.4587576725930754e+01 3 4 0
1378 444 2 -8.2999999999999996e-01 9.1216179901421945e-01 8.4961277803605846e+00 1.0185714490549801e+01 2 6 0
221 444 1 4.1499999999999998e-01 6.3966457431898673e+00 2.3466646728140437e+00 1.5993190221574872e+01 0 -4 0
2563 444 2 -8.2999999999999996e-01 5.1801367063640513e-01 1.1371072895440102e+01 1.0118605302715105e+01 -3 2 0
4447 444 2 -8.2999999999999996e-01 7.3586911453839496e+00 9.1891379793080097e-01 1.0359959992195948e+01 1 3 0
2880 444 1 4.1499999999999998e-01 2.2503994177407360e+00 3.5031976318391109e+00 1.6120014568493705e+01 2 0 0
2061 444 1 4.1499999999999998e-01 2.3443177937398398e+00 1.1210579066817445e+01 9.9173591858439387e+00 2 -1 0
2564 444 1 4.1499999999999998e-01 2.7926685938033569e-01 1.0444917918223675e+01 1.0156931346354606e+01 -3 2 0
2059 444 2 -8.2999999999999996e-01 3.2601849626157464e+00 1.1060533235177473e+01 1.0151679707384471e+01 2 -1 0
6011 444 3 -1.0000000000000000e+00 3.8276286582039307e+00 7.3340312538476815e-01 9.0200951277693342e+00 1 1 0
1249 444 2 -8.2999999999999996e-01 1.3664885684909345e+00 6.9591853949831721e+00 1.5963757157775655e+01 2 -1 0
3872 444 1 4.1499999999999998e-01 7.4288719490486255e+00 9.4681188132283722e+00 1.2596945090333657e+01 0 0 0
3068 444 1 4.1499999999999998e-01 7.1163812830999724e+00 3.7313168855850423e+00 1.4726556023937517e+01 3 -5 0
1251 444 1 4.1499999999999998e-01 9.3838387741308593e-01 6.1507561903968710e+00 1.6245538974156418e+01 2 -1 0
2603 444 1 4.1499999999999998e-01 1.8186590953485648e-01 3.7256468912793728e+00 1.0340460754082152e+01 -1 6 0
2943 444 1 4.1499999999999998e-01 5.3910617624865820e+00 6.5895635556579011e+00 1.5204425333035307e+01 2 -2 0
5062 444 2 -8.2999999999999996e-01 1.1036964353817151e+00 1.9614321249487157e-01 1.5599339380509194e+01 1 1 0
222 444 1 4.1499999999999998e-01 5.2316511129058911e+00 2.5029924481289805e+00 1.5039122847603503e+01 0 -4 0
2941 444 2 -8.2999999999999996e-01 5.9611922177593319e+00 6.7199670994474907e+00 1.5962171149079165e+01 2 -2 0
2942 444 1 4.1499999999999998e-01 6.7830680354437511e+00 7.0415705380579539e+00 1.5591599223050835e+01 2 -2 0
220 444 2 -8.2999999999999996e-01 6.1545926114511955e+00 2.2513401864504203e+00 1.5072019277776143e+01 0 -4 0
2878 444 2 -8.2999999999999996e-01 2.9124079607826427e+00 2.9091730688796131e+00 1.5766303021381079e+01 2 0 0
2879 444 1 4.1499999999999998e-01 2.8221134586476193e+00 2.9873446550456286e+00 1.4816582936078712e+01 2 0 0
6021 444 3 -1.0000000000000000e+00 1.7141780191984887e-01 6.3192300651526923e+00 8.9697456132088824e+00 1 1 0
3722 444 1 4.1499999999999998e-01 5.5248928108005950e+00 1.1460888945573956e+01 1.5194983635352935e+01 1 1 0
5063 444 1 4.1499999999999998e-01 1.9156430803879603e+00 4.4005524711048422e-01 1.6043728336203873e+01 1 1 0
5807 444 1 4.1499999999999998e-01 5.9391406136029445e-02 4.2277424627399549e+00 1.6128321264622898e+01 1 -3 0
3721 444 2 -8.2999999999999996e-01 5.4219323910023522e+00 1.1493488415184231e+01 1.4243895667136508e+01 1 1 0
1250 444 1 4.1499999999999998e-01 1.3437967695520368e+00 6.9220604773394667e+00 1.5007546409882513e+01 2 -1 0
2174 444 1 4.1499999999999998e-01 1.1891665349515990e+00 1.0518865817001689e+01 1.6018137314668149e+01 3 5 0
2173 444 2 -8.2999999999999996e-01 1.6582056207177234e+00 1.1353257596290664e+01 1.6013077579712107e+01 3 5 0
1379 444 1 4.1499999999999998e-01 3.4945085186807795e-01 8.5301798639890283e+00 1.0959296245465314e+01 2 6 0
2720 444 1 4.1499999999999998e-01 8.8399761267385220e+00 5.7316310203280105e+00 1.3007290815553286e+01 2 -3 0
3069 444 1 4.1499999999999998e-01 8.5710380087211551e+00 4.1506234466358372e+00 1.4733723188196384e+01 3 -5 0
3121 444 2 -8.2999999999999996e-01 1.3909288418787295e+01 4.3156597607538355e-01 1.3129995799120818e+01 -1 -2 0
2719 444 2 -8.2999999999999996e-01 9.3003295217222934e+00 6.5038390249912581e+00 1.2678654916217376e+01 2 -3 0
3539 444 1 4.1499999999999998e-01 1.2585212402208986e+01 8.6592647126432565e-01 1.4375379320487367e+01 0 3 0
3488 444 1 4.1499999999999998e-01 1.3804685689207162e+01 4.4356908374044055e+00 1.1551547150850730e+01 0 1 0
507 444 1 4.1499999999999998e-01 8.1370254039487548e+00 7.5518034295898637e+00 1.0771878334304107e+01 0 -1 0
5654 444 1 4.1499999999999998e-01 1.1023755484732567e+01 3.8683216219424126e+00 1.2875971932695132e+01 -4 0 0
769 444 2 -8.2999999999999996e-01 9.3472972926939821e+00 8.7807432288401410e-01 1.5627330049975310e+01 0 2 0
5501 444 1 4.1499999999999998e-01 8.8473779810644952e+00 7.7386677533616890e+00 1.3998838679865214e+01 2 -2 0
5500 444 2 -8.2999999999999996e-01 8.6155402717815655e+00 8.3897385773418254e+00 1.4661099919344718e+01 2 -2 0
5502 444 1 4.1499999999999998e-01 8.1692916797470048e+00 9.0810835276515061e+00 1.4172084332565200e+01 2 -2 0
633 444 1 4.1499999999999998e-01 8.9671300371158029e+00 2.2634449382564932e+00 1.3019535824610120e+01 0 2 0
4536 444 1 4.1499999999999998e-01 1.1377124124636774e+01 9.9268127268350117e+00 1.3547267876808000e+01 -4 0 0
458 444 1 4.1499999999999998e-01 1.0627729085244683e+01 9.5628120333650344e+00 1.0066510236931789e+01 3 3 0
3873 444 1 4.1499999999999998e-01 8.6103580754417415e+00 1.0093408276575273e+01 1.1886312156712197e+01 0 0 0
457 444 2 -8.2999999999999996e-01 9.7852249182563789e+00 9.8823233756457913e+00 1.0389513501058868e+01 3 3 0
3871 444 2 -8.2999999999999996e-01 8.0714545515432405e+00 1.0173444379762836e+01 1.2673338300715733e+01 0 0 0
459 444 1 4.1499999999999998e-01 9.6806108482190378e+00 1.0740596228861127e+01 9.9788365856816998e+00 3 3 0
4155 444 1 4.1499999999999998e-01 1.0696747761453265e+01 1.3355604166827240e+00 1.0254431084664251e+01 3 -3 0
4154 444 1 4.1499999999999998e-01 1.1079254838881484e+01 2.0212886174706082e+00 1.1548788231199584e+01 3 -3 0
5570 444 1 4.1499999999999998e-01 1.0408981595571937e+01 6.8410198688229604e+00 1.0100821977644181e+01 -1 -4 0
4236 444 1 4.1499999999999998e-01 9.8989372660670867e+00 1.0792487880687579e+01 1.5392868183582310e+01 2 -4 0
2721 444 1 4.1499999999999998e-01 9.0720456627738404e+00 6.5421356288653039e+00 1.1749864311014859e+01 2 -3 0
5571 444 1 4.1499999999999998e-01 9.3884819451109500e+00 5.8279188683324445e+00 9.6274277996125353e+00 -1 -4 0
5569 444 2 -8.2999999999999996e-01 9.4691660290924009e+00 6.7197217326282734e+00 9.9656726972105663e+00 -1 -4 0
256 444 2 -8.2999999999999996e-01 1.1297095664797336e+01 4.5195046879908460e+00 9.6522365290161076e+00 -2 3 0
257 444 1 4.1499999999999998e-01 1.1502568397454919e+01 3.7688912299585819e+00 1.0209544702380285e+01 -2 3 0
258 444 1 4.1499999999999998e-01 1.2144908148761820e+01 4.9282835213339995e+00 9.4780362258903637e+00 -2 3 0
6007 444 3 -1.0000000000000000e+00 1.3690356702551593e+01 5.6349411908101690e+00 8.9629191454336450e+00 0 0 0
2760 444 1 4.1499999999999998e-01 1.2640089652253586e+01 6.4882130855644977e+00 9.9826023779978748e+00 -3 -1 0
2758 444 2 -8.2999999999999996e-01 1.2130755774073894e+01 6.9388359221408402e+00 1.0656212086859879e+01 -3 -1 0
2759 444 1 4.1499999999999998e-01 1.2454536112582165e+01 7.8394585461320982e+00 1.0639565788478087e+01 -3 -1 0
3694 444 2 -8.2999999999999996e-01 1.2862294050332363e+01 9.3734391357782556e+00 1.0379048983409863e+01 2 4 0
4235 444 1 4.1499999999999998e-01 1.1367438741629829e+01 1.0962333583188967e+01 1.5719289902523560e+01 2 -4 0
4449 444 1 4.1499999999999998e-01 7.8090549183648417e+00 1.1714154017381666e+00 1.1165967029728803e+01 1 3 0
4234 444 2 -8.2999999999999996e-01 1.0716091392442106e+01 1.1147272444745100e+01 1.5042698336333496e+01 2 -4 0
3696 444 1 4.1499999999999998e-01 1.2693352698008743e+01 1.0311552388102811e+01 1.0291674988458015e+01 2 4 0
4153 444 2 -8.2999999999999996e-01 1.1369588088842109e+01 1.8926508281610050e+00 1.0645798144040072e+01 3 -3 0
2419 444 2 -8.2999999999999996e-01 1.2439009071032418e+01 5.1781701959925259e+00 1.2669656126466764e+01 0 1 0
2421 444 1 4.1499999999999998e-01 1.1855425328428218e+01 5.6699847362147189e+00 1.2091918820899737e+01 0 1 0
3122 444 1 4.1499999999999998e-01 1.4339911190460375e+01 7.2822078226831999e-01 1.2328252818468652e+01 -1 -2 0
5653 444 2 -8.2999999999999996e-01 1.0601752550344303e+01 3.0688209743415040e+00 1.3190527438724786e+01 -4 0 0
5655 444 1 4.1499999999999998e-01 1.1018778018794182e+01 2.8932452635143062e+00 1.4034029268459895e+01 -4 0 0
2420 444 1 4.1499999999999998e-01 1.3117125017003756e+01 5.8066951335324068e+00 1.2917339565044584e+01 0 1 0
2046 444 1 4.1499999999999998e-01 1.4157910427349057e+01 2.4222346444321170e+00 1.0249499974900129e+01 3 -2 0
2637 444 1 4.1499999999999998e-01 1.5098674685842967e+01 6.2996705529566608e+00 9.6212667447036715e+00 0 1 0
3489 444 1 4.1499999999999998e-01 1.4496329331584599e+01 4.7393519565348665e+00 1.0239558504103016e+01 0 1 0
632 444 1 4.1499999999999998e-01 7.6371764275911733e+00 1.5818245036127587e+00 1.3261430037763480e+01 0 2 0
2044 444 2 -8.2999999999999996e-01 1.3914493277411388e+01 1.5111047388624295e+00 1.0085724981103901e+01 3 -2 0
631 444 2 -8.2999999999999996e-01 8.4391816493058229e+00 1.5143148885344977e+00 1.2743296576711721e+01 0 2 0
3487 444 2 -8.2999999999999996e-01 1.4578927588964847e+01 4.2128825820398452e+00 1.1034693364012439e+01 0 1 0
2045 444 1 4.1499999999999998e-01 1.2957301000676193e+01 1.5148599444611348e+00 1.0084868878729067e+01 3 -2 0
4141 444 2 -8.2999999999999996e-01 9.9902341522553773e+00 4.8514786171640614e+00 1.5902382541163522e+01 3 5 0
4534 444 2 -8.2999999999999996e-01 1.2003899031360001e+01 9.3918480614141426e+00 1.3060237899979798e+01 -4 0 0
4535 444 1 4.1499999999999998e-01 1.1736039139801550e+01 9.4812614681165694e+00 1.2145640465069034e+01 -4 0 0
3695 444 1 4.1499999999999998e-01 1.3815155090101490e+01 9.2957469006395339e+00 1.0331597669178635e+01 2 4 0
3067 444 2 -8.2999999999999996e-01 7.7811718210468266e+00 4.1671019754094516e+00 1.4193285630259336e+01 3 -5 0
2339 444 1 4.1499999999999998e-01 8.6459973439387117e+00 9.4543151648498895e+00 1.6214853744187160e+01 0 1 0
4142 444 1 4.1499999999999998e-01 1.0886414213188559e+01 4.5209679883954834e+00 1.5964481161607869e+01 3 5 0
2621 444 1 4.1499999999999998e-01 9.6696860926830990e+00 7.5774836149338345e+00 1.5704920379607834e+01 -4 2 0
3990 444 1 4.1499999999999998e-01 1.2905845975337423e+01 8.0289428241270357e+00 1.3177910952140925e+01 -1 5 0
3988 444 2 -8.2999999999999996e-01 1.3572067929992516e+01 7.3779775866465345e+00 1.3398420478182883e+01 -1 5 0
3540 444 1 4.1499999999999998e-01 1.2743648444836841e+01 1.0999030794954392e+00 1.5862674908524619e+01 0 3 0
3538 444 2 -8.2999999999999996e-01 1.2186352092441055e+01 1.3215793220725982e+00 1.5116677388206972e+01 0 3 0
771 444 1 4.1499999999999998e-01 1.0298264830254992e+01 7.9124935266218921e-01 1.5561337006602637e+01 0 2 0
6005 444 3 -1.0000000000000000e+00 9.5682528441489083e+00 2.3892343758440251e-01 9.1695617055519456e+00 1 1 0
247 444 2 -8.2999999999999996e-01 1.2836034097840924e+01 3.7086641453786391e+00 1.6247325117949817e+01 1 -2 0
5601 444 1 4.1499999999999998e-01 1.3449744395748329e+01 6.5308004086413138e+00 1.5267670229861348e+01 -2 -1 0
249 444 1 4.1499999999999998e-01 1.2807926377636019e+01 2.8663208522626054e+00 1.5793562582413193e+01 1 -2 0
5600 444 1 4.1499999999999998e-01 1.3304816957834076e+01 5.3055856920960434e+00 1.6145018594080636e+01 -2 -1 0
2622 444 1 4.1499999999999998e-01 1.1164591184548662e+01 7.8080383652411784e+00 1.5768155656360863e+01 -4 2 0
2620 444 2 -8.2999999999999996e-01 1.0442276819590417e+01 7.3920303999674957e+00 1.6238720527320943e+01 -4 2 0
5599 444 2 -8.2999999999999996e-01 1.3438349580852615e+01 6.2526446324530660e+00 1.6183493028030320e+01 -2 -1 0
770 444 1 4.1499999999999998e-01 9.0110163824049625e+00 4.3094189502546654e-01 1.4850657554737333e+01 0 2 0
4448 444 1 4.1499999999999998e-01 8.0583167731712795e+00 6.2732920496457767e-01 9.7753793252474317e+00 1 3 0
1948 444 2 -8.2999999999999996e-01 1.5224182999080664e+01 1.1255215613036205e+01 1.2482912263941248e+01 2 -2 0
3989 444 1 4.1499999999999998e-01 1.4403011911897329e+01 7.8438250590655070e+00 1.3304878556603292e+01 -1 5 0
747 444 1 4.1499999999999998e-01 1.3052376399061199e+01 1.0380248002185372e+01 1.4559837083509860e+01 2 -4 0
3917 444 1 4.1499999999999998e-01 9.8109524783648894e+00 3.1374478240704889e-01 1.3022929355824109e+01 0 0 0
746 444 1 4.1499999999999998e-01 1.3576203379149332e+01 1.0529490711564522e+01 1.5972362294485347e+01 2 -4 0
745 444 2 -8.2999999999999996e-01 1.3833122905434086e+01 1.0627238282668586e+01 1.5055481362453099e+01 2 -4 0
1950 444 1 4.1499999999999998e-01 1.4882524551592127e+01 1.1010624307254405e+01 1.3342956735543728e+01 2 -2 0
5235 444 1 4.1499999999999998e-01 4.0847680637975561e+00 8.6976783607008894e+00 1.7317170824048894e+01 -1 -4 0
5806 444 2 -8.2999999999999996e-01 3.9469387367481995e-01 4.3838782237129301e+00 1.7011172342112854e+01 1 -3 0
4066 444 2 -8.2999999999999996e-01 7.0034710448068287e+00 4.3431473281627958e-01 2.3866280609835531e+01 3 0 0
4083 444 1 4.1499999999999998e-01 1.1171994383145418e+00 3.0833375914121617e+00 2.0442165650182687e+01 -3 2 0
5234 444 1 4.1499999999999998e-01 2.7294237433517092e+00 8.0362385427280589e+00 1.7185131033184177e+01 -1 -4 0
5233 444 2 -8.2999999999999996e-01 3.2901977169111269e+00 8.4947635630827261e+00 1.7810846357273888e+01 -1 -4 0
4041 444 1 4.1499999999999998e-01 2.2922034883350202e+00 4.4809316953434495e+00 2.0798117318485225e+01 1 0 0
4040 444 1 4.1499999999999998e-01 2.6188841235142593e+00 4.3847436219692790e+00 1.9323016295843711e+01 1 0 0
4286 444 1 4.1499999999999998e-01 1.6440265633068141e-01 5.0467803588882996e+00 1.9667561737216989e+01 -3 -1 0
3154 444 2 -8.2999999999999996e-01 2.6616833936490125e+00 7.2415806731643118e+00 2.0027934715163919e+01 -1 4 0
3412 444 2 -8.2999999999999996e-01 5.2408314586272047e+00 2.1377211424274365e+00 2.2536549523130628e+01 2 -3 0
3413 444 1 4.1499999999999998e-01 5.6995763230874372e+00 1.3541037665123303e+00 2.2839420109892497e+01 2 -3 0
2616 444 1 4.1499999999999998e-01 1.1774576531414145e+00 1.0015011240389107e+01 2.2062079548496481e+01 1 2 0
2257 444 2 -8.2999999999999996e-01 3.9879758666052072e+00 7.0024314748730161e+00 2.2410336939868838e+01 4 1 0
2258 444 1 4.1499999999999998e-01 3.6517746218909632e+00 7.0955033914241143e+00 2.1518968172903438e+01 4 1 0
2259 444 1 4.1499999999999998e-01 3.4035664434763309e+00 6.3658568612850503e+00 2.2822004627936973e+01 4 1 0
98 444 1 4.1499999999999998e-01 4.2480105900547631e+00 3.3065106383318641e+00 2.3486797078788594e+01 -1 -2 0