LAMMPS data file via write_data, version 11 Aug 2017, timestep = 500000

7162 atoms
4 atom types
4000 bonds
1 bond types
2000 angles
1 angle types

0.0000000000000000e+00 4.5679949999999998e+01 xlo xhi
0.0000000000000000e+00 4.6885919999999999e+01 ylo yhi
0.0000000000000000e+00 6.5000000000000000e+01 zlo zhi

Masses

1 1.0079
2 15.9994
3 18.9984
4 107.868

Bond Coeffs # harmonic

1 450 0.9572

Angle Coeffs # harmonic

1 55 104.52

Atoms # full

6011 444 4 0.0000000000000000e+00 1.6907200000000000e+00 0.0000000000000000e+00 0.0000000000000000e+00 0 0 0
6012 444 4 0.0000000000000000e+00 4.2285000000000004e+00 1.4651900000000000e+00 0.0000000000000000e+00 0 0 0
6013 444 4 3.4720000000000001e-02 1.6907700000000001e+00 0.0000000000000000e+00 7.1781499999999996e+00 0 0 0
6014 444 4 3.4720000000000001e-02 4.2285500000000003e+00 1.4651900000000000e+00 7.1781499999999996e+00 0 0 0
6015 444 4 0.0000000000000000e+00 2.5366499999999998e+00 1.4651900000000000e+00 2.3926400000000001e+00 0 0 0
6016 444 4 0.0000000000000000e+00 5.0744199999999999e+00 0.0000000000000000e+00 2.3926400000000001e+00 0 0 0
6017 444 4 0.0000000000000000e+00 8.4509000000000001e-01 1.4651900000000000e+00 4.7824200000000001e+00 0 0 0
6018 444 4 0.0000000000000000e+00 3.3828600000000000e+00 0.0000000000000000e+00 4.7824499999999999e+00 0 0 0
6019 444 4 0.0000000000000000e+00 1.6907200000000000e+00 2.9303699999999999e+00 0.0000000000000000e+00 0 0 0
6020 444 4 0.0000000000000000e+00 4.2285000000000004e+00 4.3955599999999997e+00 0.0000000000000000e+00 0 0 0
6021 444 4 3.4720000000000001e-02 1.6907700000000001e+00 2.9303699999999999e+00 7.1781899999999998e+00 0 0 0
6022 444 4 3.4720000000000001e-02 4.2285500000000003e+00 4.3955599999999997e+00 7.1781600000000001e+00 0 0 0
6023 444 4 0.0000000000000000e+00 2.5366499999999998e+00 4.3955599999999997e+00 2.3926400000000001e+00 0 0 0
6024 444 4 0.0000000000000000e+00 5.0744199999999999e+00 2.9303699999999999e+00 2.3926400000000001e+00 0 0 0
6025 444 4 0.0000000000000000e+00 8.4509000000000001e-01 4.3955599999999997e+00 4.7824499999999999e+00 0 0 0
6026 444 4 0.0000000000000000e+00 3.3828700000000000e+00 2.9303699999999999e+00 4.7824400000000002e+00 0 0 0
6027 444 4 0.0000000000000000e+00 1.6907200000000000e+00 5.8607399999999998e+00 0.0000000000000000e+00 0 0 0
6028 444 4 0.0000000000000000e+00 4.2285000000000004e+00 7.3259299999999996e+00 0.0000000000000000e+00 0 0 0
6029 444 4 3.4720000000000001e-02 1.6907700000000001e+00 5.8607399999999998e+00 7.1781499999999996e+00 0 0 0
6030 444 4 3.4720000000000001e-02 4.2285500000000003e+00 7.3259299999999996e+00 7.1781499999999996e+00 0 0 0
6031 444 4 0.0000000000000000e+00 2.5366499999999998e+00 7.3259299999999996e+00 2.3926400000000001e+00 0 0 0
6032 444 4 0.0000000000000000e+00 5.0744199999999999e+00 5.8607399999999998e+00 2.3926400000000001e+00 0 0 0
6033 444 4 0.0000000000000000e+00 8.4509000000000001e-01 7.3259299999999996e+00 4.7824200000000001e+00 0 0 0
6034 444 4 0.0000000000000000e+00 3.3828600000000000e+00 5.8607399999999998e+00 4.7824499999999999e+00 0 0 0
6139 444 4 0.0000000000000000e+00 6.7662699999999996e+00 0.0000000000000000e+00 0.0000000000000000e+00 0 0 0
6141 444 4 3.4720000000000001e-02 6.7663200000000003e+00 0.0000000000000000e+00 7.1781499999999996e+00 0 0 0
6143 444 4 0.0000000000000000e+00 7.6121999999999996e+00 1.4651900000000000e+00 2.3926400000000001e+00 0 0 0
6145 444 4 0.0000000000000000e+00 5.9206399999999997e+00 1.4651900000000000e+00 4.7824200000000001e+00 0 0 0
6147 444 4 0.0000000000000000e+00 6.7662699999999996e+00 2.9303699999999999e+00 0.0000000000000000e+00 0 0 0
6149 444 4 3.4720000000000001e-02 6.7663200000000003e+00 2.9303699999999999e+00 7.1781899999999998e+00 0 0 0
6151 444 4 0.0000000000000000e+00 7.6121999999999996e+00 4.3955599999999997e+00 2.3926400000000001e+00 0 0 0
6153 444 4 0.0000000000000000e+00 5.9206399999999997e+00 4.3955599999999997e+00 4.7824499999999999e+00 0 0 0
6155 444 4 0.0000000000000000e+00 6.7662699999999996e+00 5.8607399999999998e+00 0.0000000000000000e+00 0 0 0
6157 444 4 3.4720000000000001e-02 6.7663200000000003e+00 5.8607399999999998e+00 7.1781499999999996e+00 0 0 0
6159 444 4 0.0000000000000000e+00 7.6121999999999996e+00 7.3259299999999996e+00 2.3926400000000001e+00 0 0 0
6161 444 4 0.0000000000000000e+00 5.9206399999999997e+00 7.3259299999999996e+00 4.7824200000000001e+00 0 0 0
6140 444 4 0.0000000000000000e+00 9.3040500000000002e+00 1.4651900000000000e+00 0.0000000000000000e+00 0 0 0
6142 444 4 3.4720000000000001e-02 9.3041000000000000e+00 1.4651900000000000e+00 7.1781499999999996e+00 0 0 0
6144 444 4 0.0000000000000000e+00 1.0149970000000000e+01 0.0000000000000000e+00 2.3926400000000001e+00 0 0 0
6146 444 4 0.0000000000000000e+00 8.4584100000000007e+00 0.0000000000000000e+00 4.7824499999999999e+00 0 0 0
6148 444 4 0.0000000000000000e+00 9.3040500000000002e+00 4.3955599999999997e+00 0.0000000000000000e+00 0 0 0
6150 444 4 3.4720000000000001e-02 9.3041000000000000e+00 4.3955599999999997e+00 7.1781600000000001e+00 0 0 0
6152 444 4 0.0000000000000000e+00 1.0149970000000000e+01 2.9303699999999999e+00 2.3926400000000001e+00 0 0 0
6154 444 4 0.0000000000000000e+00 8.4584200000000003e+00 2.9303699999999999e+00 4.7824400000000002e+00 0 0 0
6156 444 4 0.0000000000000000e+00 9.3040500000000002e+00 7.3259299999999996e+00 0.0000000000000000e+00 0 0 0
6158 444 4 3.4720000000000001e-02 9.3041000000000000e+00 7.3259299999999996e+00 7.1781499999999996e+00 0 0 0
6160 444 4 0.0000000000000000e+00 1.0149970000000000e+01 5.8607399999999998e+00 2.3926400000000001e+00 0 0 0
6162 444 4 0.0000000000000000e+00 8.4584100000000007e+00 5.8607399999999998e+00 4.7824499999999999e+00 0 0 0
6273 444 4 0.0000000000000000e+00 1.0996190000000000e+01 1.4651900000000000e+00 4.7824200000000001e+00 0 0 0
6281 444 4 0.0000000000000000e+00 1.0996190000000000e+01 4.3955599999999997e+00 4.7824499999999999e+00 0 0 0
6289 444 4 0.0000000000000000e+00 1.0996190000000000e+01 7.3259299999999996e+00 4.7824200000000001e+00 0 0 0
994 444 2 -8.2999999999999996e-01 3.6462689851961394e+00 5.7505680683595273e+00 1.5527505774393781e+01 0 -2 0
5731 444 2 -8.2999999999999996e-01 7.0932914832664062e+00 5.3987950329308170e+00 1.2252252268357738e+01 1 -2 0
721 444 2 -8.2999999999999996e-01 8.2521074460284680e+00 3.1853283367390999e+00 1.3140518113761495e+01 -4 0 0
722 444 1 4.1499999999999998e-01 7.6662164372636585e+00 2.5398217697843086e+00 1.3535847142925171e+01 -4 0 0
5733 444 1 4.1499999999999998e-01 7.0681049300819474e+00 5.2817048359412224e+00 1.1302573969737709e+01 1 -2 0
5732 444 1 4.1499999999999998e-01 7.1384580395268822e+00 6.3468809264646655e+00 1.2376047753205647e+01 1 -2 0
4724 444 1 4.1499999999999998e-01 7.4283744755701457e+00 3.6549235724988915e+00 9.7243446015587924e+00 0 -2 0
5126 444 1 4.1499999999999998e-01 8.0843941491338285e+00 5.6621525264746992e+00 9.5918962153368668e+00 0 0 0
5125 444 2 -8.2999999999999996e-01 8.8423117788096253e+00 6.1061779741523958e+00 9.9722043326421819e+00 0 0 0
5024 444 1 4.1499999999999998e-01 5.0963801859983153e+00 2.2963206963472049e+00 1.0377201933871069e+01 0 2 0
6003 444 3 -1.0000000000000000e+00 6.5566148378082358e+00 5.2014271826537213e+00 9.4472313280461435e+00 2 2 0
5334 444 1 4.1499999999999998e-01 1.5949845093528223e+00 4.3871643555660231e+00 1.0139043202448734e+01 2 3 0
2657 444 1 4.1499999999999998e-01 3.2844683743963570e+00 6.5858829948636135e+00 9.9927730656048048e+00 4 -2 0
2395 444 2 -8.2999999999999996e-01 4.2405031035780034e+00 5.1253688912771205e+00 1.3057895370849627e+01 -1 0 0
4152 444 1 4.1499999999999998e-01 3.8679208598351944e+00 4.7709672913173566e+00 9.9928241231235830e+00 1 0 0
2656 444 2 -8.2999999999999996e-01 2.4519594392349524e+00 6.1138929415926686e+00 9.9731229859295105e+00 4 -2 0
1325 444 1 4.1499999999999998e-01 5.5758541997676643e+00 6.3123226290995413e+00 9.8218617222281530e+00 -1 2 0
2658 444 1 4.1499999999999998e-01 1.7867298437038954e+00 6.7970715096843710e+00 1.0056600652775268e+01 4 -2 0
1324 444 2 -8.2999999999999996e-01 5.0188685725612538e+00 6.9964731494507051e+00 1.0193260813560432e+01 -1 2 0
4723 444 2 -8.2999999999999996e-01 8.1048957745615660e+00 3.0118538044755447e+00 9.9365052763572042e+00 0 -2 0
4151 444 1 4.1499999999999998e-01 5.3444204105755286e+00 4.4522719151489030e+00 1.0094203152694817e+01 1 0 0
4150 444 2 -8.2999999999999996e-01 4.4836775364321433e+00 4.1536120455560015e+00 1.0387726804599524e+01 1 0 0
723 444 1 4.1499999999999998e-01 7.7541529496611519e+00 3.5429649969371710e+00 1.2405419663185420e+01 -4 0 0
4725 444 1 4.1499999999999998e-01 8.9291679409861580e+00 3.4867610568112783e+00 9.8303431305377149e+00 0 -2 0
255 444 1 4.1499999999999998e-01 8.1654329461298900e+00 1.2689733293409067e+00 1.0369134293928649e+01 3 -1 0
2397 444 1 4.1499999999999998e-01 5.0355464318235539e+00 5.6143123795843604e+00 1.2845593122734318e+01 -1 0 0
3990 444 1 4.1499999999999998e-01 2.3085499125704652e+00 5.1704357318903691e+00 1.2598323380513648e+01 -2 0 0
3989 444 1 4.1499999999999998e-01 1.3331563644167241e+00 4.1096378830398201e+00 1.3062231495137629e+01 -2 0 0
2396 444 1 4.1499999999999998e-01 4.1895780237472220e+00 4.4462799103736739e+00 1.2385231516114038e+01 -1 0 0
5127 444 1 4.1499999999999998e-01 9.4468862108354834e+00 5.3989617100281739e+00 1.0197074910563177e+01 0 0 0
3988 444 2 -8.2999999999999996e-01 1.3846987866358142e+00 5.0304721995903243e+00 1.2806028670529148e+01 -2 0 0
5332 444 2 -8.2999999999999996e-01 8.3011702069518944e-01 3.8154249611105837e+00 1.0073282460102419e+01 2 3 0
4350 444 1 4.1499999999999998e-01 8.0908916110445894e-01 1.9976185088682172e+00 9.8149481456288257e+00 -3 3 0
996 444 1 4.1499999999999998e-01 3.6708143098634780e+00 5.6420289875723171e+00 1.4576796202826754e+01 0 -2 0
3226 444 2 -8.2999999999999996e-01 1.0665640723351711e+01 4.1903900844989330e+00 1.0185045463627668e+01 0 -1 0
3423 444 1 4.1499999999999998e-01 9.1157800907885331e+00 4.1201577611358884e+00 1.4323254110384291e+01 0 0 0
3421 444 2 -8.2999999999999996e-01 9.8033526793107715e+00 4.6623601239638006e+00 1.4709896677421428e+01 0 0 0
3422 444 1 4.1499999999999998e-01 9.7743032988954948e+00 5.4786942726105856e+00 1.4210911118929669e+01 0 0 0
1583 444 1 4.1499999999999998e-01 1.0253070887543692e+00 1.2090569468380443e+00 1.3870645030790309e+01 0 -1 0
5023 444 2 -8.2999999999999996e-01 5.2361601742399362e+00 1.3711651040435049e+00 1.0175258186325056e+01 0 2 0
1582 444 2 -8.2999999999999996e-01 1.1257472036711755e+00 2.1412870420815393e+00 1.3678055342113664e+01 0 -1 0
4995 444 1 4.1499999999999998e-01 1.0670895822610609e+01 3.5462915036389244e+00 1.5792328965221136e+01 -5 -1 0
1613 444 1 4.1499999999999998e-01 9.6678375235135317e+00 2.1888029733785679e+00 1.3010871330489374e+01 -4 -1 0
3365 444 1 4.1499999999999998e-01 2.2502308800305242e+00 3.7529774568078106e-01 1.0492515050787494e+01 0 0 0
1612 444 2 -8.2999999999999996e-01 1.0312336031897615e+01 1.4818939984630142e+00 1.2977193936409630e+01 -4 -1 0
1614 444 1 4.1499999999999998e-01 1.1054113330838220e+01 1.8089789785879971e+00 1.3486128019027909e+01 -4 -1 0
5270 444 1 4.1499999999999998e-01 1.3567658091474386e+00 6.1287505655358316e+00 1.5234082302935009e+01 0 2 0
253 444 2 -8.2999999999999996e-01 7.6675024768642306e+00 4.7829406889698589e-01 1.0161472341334377e+01 3 -1 0
254 444 1 4.1499999999999998e-01 6.8045687454068116e+00 7.9979318723824100e-01 9.9002911503494619e+00 3 -1 0
5299 444 2 -8.2999999999999996e-01 9.0932223096047231e+00 7.2432725869201242e+00 1.4486903386583529e+01 0 2 0
5025 444 1 4.1499999999999998e-01 4.3549200240596688e+00 1.0011654250319084e+00 1.0122828640003410e+01 0 2 0
995 444 1 4.1499999999999998e-01 3.9627439289557262e+00 6.6417217407914535e+00 1.5675562270348902e+01 0 -2 0
5271 444 1 4.1499999999999998e-01 1.1862036281619062e-01 5.2583136862805517e+00 1.5269165526430003e+01 0 2 0
3228 444 1 4.1499999999999998e-01 1.1246947183337705e+01 4.9026911007022429e+00 1.0451394751198734e+01 0 -1 0
5269 444 2 -8.2999999999999996e-01 4.8936219238610423e-01 6.0621535854175024e+00 1.5633341222903370e+01 0 2 0
3814 444 2 -8.2999999999999996e-01 5.9741971075540850e+00 8.7210526106468644e-01 1.2771733068476896e+01 3 -1 0
4465 444 2 -8.2999999999999996e-01 3.9171237682739282e+00 2.2604210232753452e+00 1.3921854014269307e+01 4 0 0
4466 444 1 4.1499999999999998e-01 3.0245920022191024e+00 1.9170616927737354e+00 1.3963372715425059e+01 4 0 0
5300 444 1 4.1499999999999998e-01 8.2526287263751694e+00 7.6923781189718703e+00 1.4397803829399423e+01 0 2 0
1584 444 1 4.1499999999999998e-01 4.8307735040336419e-01 2.5731982291062452e+00 1.4240782043421261e+01 0 -1 0
4348 444 2 -8.2999999999999996e-01 7.0455546305518313e-01 1.0509640476153834e+00 9.9106103931578033e+00 -3 3 0
3816 444 1 4.1499999999999998e-01 5.8366054572783845e+00 1.0880827218616369e+00 1.1849423589185738e+01 3 -1 0
4467 444 1 4.1499999999999998e-01 3.8084854676626514e+00 3.2114301675186669e+00 1.3918466177079152e+01 4 0 0
3815 444 1 4.1499999999999998e-01 5.4343497989789720e+00 1.5022717048995806e+00 1.3248899873136130e+01 3 -1 0
3227 444 1 4.1499999999999998e-01 1.1202715451758532e+01 3.4016046088440888e+00 1.0259879313617734e+01 0 -1 0
2567 444 1 4.1499999999999998e-01 3.6297931902744685e-01 7.6025401039571747e+00 1.0709098782272269e+01 3 -1 0
5333 444 1 4.1499999999999998e-01 1.1228525618488534e-01 4.3317980954626663e+00 1.0439763851820583e+01 2 3 0
1326 444 1 4.1499999999999998e-01 5.6069353945115710e+00 7.7404672240155534e+00 1.0323192233422898e+01 -1 2 0
5301 444 1 4.1499999999999998e-01 9.4078193159558801e+00 7.4929847359574397e+00 1.5355755974081433e+01 0 2 0
840 444 1 4.1499999999999998e-01 6.4187700221168553e+00 1.4482859333670175e+00 1.6919685239015674e+01 0 3 0
4993 444 2 -8.2999999999999996e-01 1.1276447300791606e+01 2.9966113853627094e+00 1.6289713510829294e+01 -5 -1 0
3182 444 1 4.1499999999999998e-01 4.2253385405508332e+00 3.2485830908325247e-01 1.7604534306998733e+01 2 1 0
1245 444 1 4.1499999999999998e-01 1.4183208758279346e+00 1.5106775567935440e+00 1.9323792658233806e+01 1 1 0
4932 444 1 4.1499999999999998e-01 2.6495140164164774e+00 1.4104949071441850e-01 2.4038672500639503e+01 -1 -1 0
1359 444 1 4.1499999999999998e-01 3.8892993503872666e+00 3.4381389448034216e+00 1.7829078738332864e+01 1 0 0
1357 444 2 -8.2999999999999996e-01 4.6739168509757043e+00 3.8810315100102288e+00 1.7505885618970702e+01 1 0 0
1358 444 1 4.1499999999999998e-01 4.3399667562353521e+00 4.5950054267955389e+00 1.6962791064872885e+01 1 0 0
582 444 1 4.1499999999999998e-01 9.2583207384839614e+00 4.8090806830986459e+00 1.6381481576488405e+01 1 0 0
431 444 1 4.1499999999999998e-01 6.8923389228219047e+00 5.9057981880649013e+00 1.9442358698766981e+01 -2 1 0
4512 444 1 4.1499999999999998e-01 3.3811274907216791e+00 6.7401398655463103e+00 2.4335701730617213e+01 2 4 0
3087 444 1 4.1499999999999998e-01 5.6657631393800498e+00 5.5773278313250318e-01 1.9452652985086122e+01 2 2 0
4511 444 1 4.1499999999999998e-01 2.5494346954447242e+00 5.7625643647840397e+00 2.3532876438191735e+01 2 4 0
999 444 1 4.1499999999999998e-01 1.0246254604689476e+01 3.2431703958031002e+00 1.9126471204202925e+01 -1 -1 0
1431 444 1 4.1499999999999998e-01 1.3478696925358455e+00 7.4329161269307598e+00 2.1902098869805325e+01 0 6 0
4736 444 1 4.1499999999999998e-01 2.0672697375317273e+00 6.1229159472290897e+00 1.8550413383221681e+01 -2 1 0
839 444 1 4.1499999999999998e-01 6.0711700065804584e+00 2.9217028176865592e+00 1.6930291140868608e+01 0 3 0
838 444 2 -8.2999999999999996e-01 6.8059323490418935e+00 2.3180835039486833e+00 1.6820741721205593e+01 0 3 0
5817 444 1 4.1499999999999998e-01 7.7942021603898217e+00 3.0618891497736063e+00 1.9771650574366348e+01 2 0 0
4994 444 1 4.1499999999999998e-01 1.1174783922754514e+01 3.2869065090327294e+00 1.7196149843540468e+01 -5 -1 0
5816 444 1 4.1499999999999998e-01 7.6290880063882538e+00 2.5705113920569627e+00 1.8349264931738020e+01 2 0 0
3199 444 2 -8.2999999999999996e-01 1.0231226977185338e+01 4.9863081354897734e+00 2.1457586360070625e+01 -2 2 0
1430 444 1 4.1499999999999998e-01 1.0637754526316952e+00 7.5361698698738158e+00 2.3385515395732664e+01 0 6 0
1186 444 2 -8.2999999999999996e-01 8.7387151336902473e+00 3.3258133288469355e-01 1.8037296450572153e+01 2 0 0
1187 444 1 4.1499999999999998e-01 8.8754480588883755e+00 1.2551775442963096e+00 1.8252594203597841e+01 2 0 0
1335 444 1 4.1499999999999998e-01 5.3870354620861205e+00 3.6653290998625523e+00 2.0480007101177168e+01 1 0 0
5815 444 2 -8.2999999999999996e-01 8.2889928080390263e+00 2.7228201469144451e+00 1.9025697184343194e+01 2 0 0
879 444 1 4.1499999999999998e-01 9.5274021853527433e+00 3.7185568858930207e+00 2.2332451054490093e+01 1 1 0
765 444 1 4.1499999999999998e-01 2.6555405413190103e+00 3.8400587465162115e+00 2.1189788304076078e+01 0 -2 0
764 444 1 4.1499999999999998e-01 3.4091323807974985e+00 2.8812312259332566e+00 2.0292768591880197e+01 0 -2 0
830 444 1 4.1499999999999998e-01 5.8249477587652709e+00 4.9614693818980911e+00 2.1702365217466490e+01 -3 -4 0
1333 444 2 -8.2999999999999996e-01 5.8884604369331841e+00 4.2862052655213931e+00 1.9951501479019733e+01 1 0 0
831 444 1 4.1499999999999998e-01 5.0907982294815692e+00 5.7459682622612132e+00 2.2768893035255786e+01 -3 -4 0
1487 444 1 4.1499999999999998e-01 3.7604370495680088e+00 6.4184789458377480e+00 2.0139910474637482e+01 4 0 0
1486 444 2 -8.2999999999999996e-01 4.1333209723822817e+00 7.2373979375600204e+00 2.0466347977078495e+01 4 0 0
4735 444 2 -8.2999999999999996e-01 2.9127059146724048e+00 6.3488595933032919e+00 1.8162574168550339e+01 -2 1 0
877 444 2 -8.2999999999999996e-01 8.9388202527953542e+00 3.1184806781122907e+00 2.2790395427224592e+01 1 1 0
829 444 2 -8.2999999999999996e-01 5.8042528675832346e+00 5.8153028147049941e+00 2.2134536964216455e+01 -3 -4 0
1488 444 1 4.1499999999999998e-01 4.6966096314940193e+00 6.9716797091522773e+00 2.1193212511851272e+01 4 0 0
581 444 1 4.1499999999999998e-01 7.7905079013696863e+00 5.1649894707971393e+00 1.6485162237185403e+01 1 0 0
580 444 2 -8.2999999999999996e-01 8.6005423509116739e+00 5.1375480379333069e+00 1.6994400245314356e+01 1 0 0
763 444 2 -8.2999999999999996e-01 3.5353092452411903e+00 3.5145302704191734e+00 2.0999340594401950e+01 0 -2 0
1334 444 1 4.1499999999999998e-01 5.7170466163477061e+00 4.0245640973036840e+00 1.9046850314477293e+01 1 0 0
878 444 1 4.1499999999999998e-01 9.3702438684318086e+00 2.2661778675951183e+00 2.2729682173664028e+01 1 1 0
1188 444 1 4.1499999999999998e-01 8.5397476138435255e+00 3.3157498253792383e-01 1.7101004353911552e+01 2 0 0
3200 444 1 4.1499999999999998e-01 9.8142013017015444e+00 5.8283816718309556e+00 2.1275282087573682e+01 -2 2 0
2708 444 1 4.1499999999999998e-01 8.4669909811485500e+00 7.2501437153567432e+00 1.9716181017810147e+01 1 1 0
1341 444 1 4.1499999999999998e-01 7.2313695612283411e+00 6.7557183567972539e+00 2.3034463417985787e+01 2 0 0
1243 444 2 -8.2999999999999996e-01 1.9523150514492054e+00 2.2138425438477451e+00 1.8954142686389808e+01 1 1 0
579 444 1 4.1499999999999998e-01 5.8268907995870851e+00 1.2448057506608425e+00 2.1672173885529819e+01 -2 3 0
4737 444 1 4.1499999999999998e-01 2.7618470084871602e+00 6.3089552779848166e+00 1.7218179506730781e+01 -2 1 0
1244 444 1 4.1499999999999998e-01 1.3174394815209058e+00 2.8359864470862095e+00 1.8599034345805656e+01 1 1 0
4071 444 1 4.1499999999999998e-01 5.9376259381615855e+00 3.0175612583019085e+00 2.3304848694075424e+01 -2 -1 0
4069 444 2 -8.2999999999999996e-01 6.3885167446382898e+00 2.5265269696457286e+00 2.2617961005393401e+01 -2 -1 0
4070 444 1 4.1499999999999998e-01 7.2958456461269634e+00 2.8280300718465261e+00 2.2663590251427962e+01 -2 -1 0
577 444 2 -8.2999999999999996e-01 5.8740497628345736e+00 4.6724643644065167e-01 2.1115927919132595e+01 -2 3 0
3183 444 1 4.1499999999999998e-01 2.9937342600800245e+00 1.1967532792401818e+00 1.7726376517611701e+01 2 1 0
3201 444 1 4.1499999999999998e-01 1.0635201890887775e+01 4.7338327097146449e+00 2.0627349795626532e+01 -2 2 0
2707 444 2 -8.2999999999999996e-01 9.1509508646885944e+00 7.4537876158724625e+00 2.0354115133207713e+01 1 1 0
997 444 2 -8.2999999999999996e-01 1.1142861579703313e+01 3.2318931467605654e+00 1.8791506301620178e+01 -1 -1 0
1429 444 2 -8.2999999999999996e-01 1.1650114881281464e+00 6.9010046719011244e+00 2.2676608677596388e+01 0 6 0
432 444 1 4.1499999999999998e-01 7.8964805615351876e+00 6.1486169099939341e+00 1.8335726885344990e+01 -2 1 0
3002 444 1 4.1499999999999998e-01 4.5679888963163959e+00 4.5416900858792673e+00 2.4187943143005789e+01 -4 0 0
3085 444 2 -8.2999999999999996e-01 5.5866750426536145e+00 2.2539579601035786e-01 1.8558489044444478e+01 2 2 0
923 444 1 4.1499999999999998e-01 9.9318099797157338e+00 2.9152150181007569e-01 2.2456895669129985e+01 -2 -2 0
924 444 1 4.1499999999999998e-01 1.1170593776905445e+01 1.0674425325312238e+00 2.2062869621156413e+01 -2 -2 0
1339 444 2 -8.2999999999999996e-01 7.5617934133583233e+00 7.2629261643347336e+00 2.3775943190317992e+01 2 0 0
922 444 2 -8.2999999999999996e-01 1.0587270416935914e+01 8.9745344950913875e-01 2.2802511071416141e+01 -2 -2 0
3181 444 2 -8.2999999999999996e-01 3.4205305630251641e+00 5.6640245320492844e-01 1.7146087641806133e+01 2 1 0
4302 444 1 4.1499999999999998e-01 4.1650270402013918e+00 2.9169479776298424e-01 2.2075017786176588e+01 0 4 0
4510 444 2 -8.2999999999999996e-01 3.4377758303557484e+00 5.9139866357991213e+00 2.3855604163909167e+01 2 4 0
430 444 2 -8.2999999999999996e-01 7.2057429106943003e+00 6.5796247516123660e+00 1.8839061453298701e+01 -2 1 0
478 444 2 -8.2999999999999996e-01 1.1776310092372975e-01 6.8496763242886800e+00 1.8837019051285161e+01 3 2 0
2256 444 1 4.1499999999999998e-01 7.5462361849506021e-01 7.1504893619057236e-02 2.0694403175098859e+01 0 -2 0
24 444 1 4.1499999999999998e-01 5.2529110469760880e+00 1.1458671153757285e+00 3.1355426356781656e+01 2 2 0
1296 444 1 4.1499999999999998e-01 1.1238014516123906e+01 3.3102705382347302e+00 3.0703202364924476e+01 6 -1 0
3158 444 1 4.1499999999999998e-01 3.5256997100162013e+00 7.4374940656710722e+00 2.6371497336334389e+01 -1 -2 0
1272 444 1 4.1499999999999998e-01 2.2183901110280949e-01 2.4262410868926825e+00 3.1689664202161968e+01 1 1 0
2288 444 1 4.1499999999999998e-01 1.0272173209597053e+01 3.7597016788522580e-01 2.4701650676386858e+01 1 0 0
3157 444 2 -8.2999999999999996e-01 3.4061493837658290e+00 6.9688228818189177e+00 2.7197504212241792e+01 -1 -2 0
4793 444 1 4.1499999999999998e-01 8.3930325518241560e+00 7.9639043468455861e-01 2.7369259407798150e+01 0 0 0
23 444 1 4.1499999999999998e-01 6.3256369027179344e+00 1.1107760425630910e+00 3.2423098277273724e+01 2 2 0
5594 444 1 4.1499999999999998e-01 1.0849655633504536e+01 3.5448448834920265e+00 2.6176341902159702e+01 1 3 0
3525 444 1 4.1499999999999998e-01 9.9225727730081037e-02 1.7187065826225887e+00 2.7536857161401002e+01 -1 1 0
5266 444 2 -8.2999999999999996e-01 9.1324072002613466e-01 2.2296251585066337e-01 2.7007227349503406e+01 0 -1 0
4930 444 2 -8.2999999999999996e-01 2.4180228415365512e+00 4.1472196109823151e-01 2.4926223908748369e+01 -1 -1 0
1013 444 1 4.1499999999999998e-01 1.0826268401815302e+01 9.7828412383527430e-01 3.1524061541372546e+01 0 -1 0
3600 444 1 4.1499999999999998e-01 3.8099863129939262e+00 1.5266930511436287e+00 2.5385446686671823e+01 -1 2 0
1012 444 2 -8.2999999999999996e-01 1.0765338568571254e+01 7.1761962790611686e-02 3.1825290750758615e+01 0 -1 0
1452 444 1 4.1499999999999998e-01 3.8554064906104724e-01 7.3551061483476667e+00 2.7334288849953015e+01 0 2 0
2068 444 2 -8.2999999999999996e-01 5.6668060372451210e+00 6.2182466288299398e+00 2.8410461045293658e+01 0 2 0
5449 444 2 -8.2999999999999996e-01 6.7746731147512662e+00 6.1044013685312803e+00 2.5935472521515170e+01 0 3 0
4688 444 1 4.1499999999999998e-01 2.1192855815624645e+00 6.3422907688121857e+00 3.1043291481592622e+01 1 -1 0
4689 444 1 4.1499999999999998e-01 2.7692474346360805e+00 5.2210932658412323e+00 3.0260756405355362e+01 1 -1 0
4792 444 2 -8.2999999999999996e-01 9.0733774533674243e+00 1.2902936255557707e-01 2.7458656891110365e+01 0 0 0
1270 444 2 -8.2999999999999996e-01 1.0490696728722801e+00 2.9067368406266985e+00 3.1657334432968799e+01 1 1 0
5669 444 1 4.1499999999999998e-01 8.6313368591852786e+00 6.4856817085378085e+00 2.8048158699037337e+01 3 0 0
3003 444 1 4.1499999999999998e-01 4.8901940182889057e+00 3.2479977311888835e+00 2.4905187294310082e+01 -4 0 0
5451 444 1 4.1499999999999998e-01 6.1193771569382553e+00 5.4587274637279064e+00 2.5671039572930184e+01 0 3 0
3001 444 2 -8.2999999999999996e-01 5.2955510335400326e+00 3.9617346662825685e+00 2.4412747291912261e+01 -4 0 0
4687 444 2 -8.2999999999999996e-01 2.9581244798337734e+00 5.9019981160416686e+00 3.0906455301018209e+01 1 -1 0
5267 444 1 4.1499999999999998e-01 1.0979585765801323e+00 4.6822182155232683e-01 2.6100607254430678e+01 0 -1 0
3599 444 1 4.1499999999999998e-01 5.2683878444809933e+00 1.1355212114215500e+00 2.5494739089311533e+01 -1 2 0
3598 444 2 -8.2999999999999996e-01 4.6629569489884632e+00 1.8563229530720793e+00 2.5668319631585277e+01 -1 2 0
1470 444 1 4.1499999999999998e-01 9.1421152880701602e+00 7.3756005426811608e+00 2.5021603894347145e+01 -2 0 0
22 444 2 -8.2999999999999996e-01 5.9193048625940499e+00 5.7676305242128478e-01 3.1740487473155824e+01 2 2 0
5985 444 1 4.1499999999999998e-01 9.0302626506581376e+00 3.7173257752072004e+00 2.4737281305803098e+01 -2 -3 0
1596 444 1 4.1499999999999998e-01 8.0202316781449117e+00 4.8540614575376644e+00 3.1132097214992520e+01 2 4 0
5668 444 2 -8.2999999999999996e-01 9.1138295242850784e+00 6.8402602312701424e+00 2.8794956403855057e+01 3 0 0
5983 444 2 -8.2999999999999996e-01 9.3209326246906290e+00 3.7471871005810073e+00 2.5648791984068868e+01 -2 -3 0
1594 444 2 -8.2999999999999996e-01 7.9441466186306409e+00 3.8999959898400367e+00 3.1146316272283372e+01 2 4 0
5984 444 1 4.1499999999999998e-01 8.6569840810294583e+00 3.2521671197744855e+00 2.6128750418894370e+01 -2 -3 0
2700 444 1 4.1499999999999998e-01 7.1239525457414681e+00 2.4587385447333743e+00 2.8006880310169894e+01 0 -1 0
1823 444 1 4.1499999999999998e-01 4.9977832125327026e+00 3.2768547614915193e+00 2.9262928571682664e+01 2 5 0
1822 444 2 -8.2999999999999996e-01 5.8776923118392679e+00 3.5472953183979907e+00 2.9000528566860957e+01 2 5 0
1824 444 1 4.1499999999999998e-01 5.8319209780435042e+00 4.5023596998407065e+00 2.8955931682005048e+01 2 5 0
2699 444 1 4.1499999999999998e-01 6.6619534678266747e+00 2.4094396523508825e+00 2.6566039693773320e+01 0 -1 0
5418 444 1 4.1499999999999998e-01 1.2138730619882929e+00 3.5037213384692203e+00 2.8871208383188268e+01 3 2 0
5670 444 1 4.1499999999999998e-01 9.7943459845769123e+00 6.1906288371911851e+00 2.8971332018282201e+01 3 0 0
2698 444 2 -8.2999999999999996e-01 7.3857723644672140e+00 2.1541750993745339e+00 2.7138017035965298e+01 0 -1 0
1295 444 1 4.1499999999999998e-01 9.8258409197492131e+00 3.0184518389046828e+00 3.1164182754388577e+01 6 -1 0
5416 444 2 -8.2999999999999996e-01 1.7910238158562051e+00 3.9955763923130170e+00 2.9455338099513632e+01 3 2 0
1568 444 1 4.1499999999999998e-01 9.2124026224136379e-01 4.8922265065035067e+00 2.6618992853360918e+01 2 0 0
5417 444 1 4.1499999999999998e-01 1.7126481633117603e+00 3.5517202104118244e+00 3.0299779337145139e+01 3 2 0
2171 444 1 4.1499999999999998e-01 7.8304242239812032e+00 2.9685402261163403e+00 3.2415269882695583e+01 0 -2 0
1469 444 1 4.1499999999999998e-01 9.3540473197783811e+00 5.9876359113240216e+00 2.5587761385829051e+01 -2 0 0
1595 444 1 4.1499999999999998e-01 7.2368359234062627e+00 3.7064584827708087e+00 3.0531103118980145e+01 2 4 0
1468 444 2 -8.2999999999999996e-01 9.7888935077350414e+00 6.8324786438516432e+00 2.5472080512502881e+01 -2 0 0
1294 444 2 -8.2999999999999996e-01 1.0683010309068576e+01 2.6093847817148101e+00 3.1045199068319707e+01 6 -1 0
5030 444 1 4.1499999999999998e-01 1.0717768187970474e+01 1.0714006493167545e+00 2.8308234385956325e+01 -2 3 0
2069 444 1 4.1499999999999998e-01 6.3142942701035700e+00 6.6348998357940996e+00 2.7841785970680402e+01 0 2 0
1569 444 1 4.1499999999999998e-01 1.1538176310193420e+00 5.4721192433558938e+00 2.7997951696502234e+01 2 0 0
1567 444 2 -8.2999999999999996e-01 1.0893776827846728e+00 5.7169490331934103e+00 2.7074838160400333e+01 2 0 0
2070 444 1 4.1499999999999998e-01 4.8456036840570205e+00 6.6662743381831024e+00 2.8207653579636641e+01 0 2 0
1471 444 2 -8.2999999999999996e-01 1.0923742397983295e+01 4.7313565433188680e+00 2.8552151722912910e+01 5 2 0
5450 444 1 4.1499999999999998e-01 7.1619325573192780e+00 6.4039975198060617e+00 2.5112972967378703e+01 0 3 0
3159 444 1 4.1499999999999998e-01 2.6308459385686591e+00 6.4257693279131978e+00 2.7055270388613724e+01 -1 -2 0
1472 444 1 4.1499999999999998e-01 1.1235147478026027e+01 3.9728659194693892e+00 2.8058237319306642e+01 5 2 0
1575 444 1 4.1499999999999998e-01 1.0880081513026841e+01 7.7877054703109492e+00 2.6994201017386679e+01 2 2 0
4794 444 1 4.1499999999999998e-01 9.4090311571380685e+00 8.0161082469254914e-03 2.6570442803445442e+01 0 0 0
4481 444 1 4.1499999999999998e-01 3.2337238059127960e+00 4.5317634198922369e-01 3.5772095074886877e+01 -1 7 0
1899 444 1 4.1499999999999998e-01 8.0966880965512615e+00 1.1965226432361329e+00 3.7644328431562450e+01 -4 -1 0
3079 444 2 -8.2999999999999996e-01 1.8581441624974455e+00 6.2599920062985870e+00 3.5482776406057937e+01 0 -2 0
5151 444 1 4.1499999999999998e-01 6.6827357942820234e+00 1.3969790280788301e+00 3.5771260848991012e+01 -2 -1 0
1004 444 1 4.1499999999999998e-01 2.9745460567230428e+00 6.1992437156711642e+00 3.4188941214252516e+01 -1 0 0
2588 444 1 4.1499999999999998e-01 8.4551007223830226e+00 5.9398469452767593e+00 3.3511471301393911e+01 3 2 0
133 444 2 -8.2999999999999996e-01 2.0517773316203480e+00 2.7673110056837271e+00 3.4112774862370948e+01 1 0 0
1003 444 2 -8.2999999999999996e-01 3.6741853758437633e+00 6.5366179841770631e+00 3.3629551503779417e+01 -1 0 0
134 444 1 4.1499999999999998e-01 2.5610915653786805e+00 2.3409453774075404e+00 3.4802009064978414e+01 1 0 0