LAMMPS data file via write_data, version 11 Aug 2017, timestep = 500000

2412 atoms
6 atom types
1200 bonds
1 bond types
600 angles
1 angle types

0.0000000000000000e+00 3.0453299999999999e+01 xlo xhi
0.0000000000000000e+00 3.5164439999999999e+01 ylo yhi
0.0000000000000000e+00 5.0000000000000000e+01 zlo zhi

Masses

1 1.0079
2 15.9994
3 22.9898
4 107.868
5 15.9994
6 12.011

Bond Coeffs # harmonic

1 450 0.9572

Angle Coeffs # harmonic

1 55 104.52

Atoms # full

1810 444 4 0.0000000000000000e+00 0.0000000000000000e+00 0.0000000000000000e+00 0.0000000000000000e+00 0 0 0
1811 444 4 0.0000000000000000e+00 2.5377999999999998e+00 1.4651700000000001e+00 0.0000000000000000e+00 0 0 0
1812 444 4 -6.2500000000000000e-02 5.0597700000000003e+00 5.8402200000000004e+00 7.1591800000000001e+00 0 0 0
1813 444 4 -6.2500000000000000e-02 2.5367199999999999e+00 1.4594700000000000e+00 7.2366200000000003e+00 0 0 0
1814 444 4 0.0000000000000000e+00 1.6918700000000000e+00 0.0000000000000000e+00 2.3925000000000001e+00 0 0 0
1815 444 4 0.0000000000000000e+00 4.2296699999999996e+00 1.4651700000000001e+00 2.3925000000000001e+00 0 0 0
1816 444 4 0.0000000000000000e+00 3.3837299999999999e+00 0.0000000000000000e+00 4.7852499999999996e+00 0 0 0
1817 444 4 0.0000000000000000e+00 8.4592999999999996e-01 1.4651700000000001e+00 4.7852499999999996e+00 0 0 0
1818 444 4 0.0000000000000000e+00 0.0000000000000000e+00 2.9303499999999998e+00 0.0000000000000000e+00 0 0 0
1819 444 4 0.0000000000000000e+00 2.5377999999999998e+00 4.3955200000000003e+00 0.0000000000000000e+00 0 0 0
1820 444 4 -6.2500000000000000e-02 4.7999999999999996e-03 2.9345300000000001e+00 7.1618100000000000e+00 0 0 0
1821 444 4 -6.2500000000000000e-02 2.5282800000000001e+00 4.3833000000000002e+00 7.1607099999999999e+00 0 0 0
1822 444 4 0.0000000000000000e+00 1.6918700000000000e+00 2.9303499999999998e+00 2.3925000000000001e+00 0 0 0
1823 444 4 0.0000000000000000e+00 4.2296699999999996e+00 4.3955200000000003e+00 2.3925000000000001e+00 0 0 0
1824 444 4 0.0000000000000000e+00 3.3837299999999999e+00 2.9303499999999998e+00 4.7852499999999996e+00 0 0 0
1825 444 4 0.0000000000000000e+00 8.4592999999999996e-01 4.3955200000000003e+00 4.7852499999999996e+00 0 0 0
1829 444 4 0.0000000000000000e+00 5.0755999999999997e+00 0.0000000000000000e+00 0.0000000000000000e+00 0 0 0
1832 444 4 -6.2500000000000000e-02 7.6123200000000004e+00 1.4594700000000000e+00 7.2366200000000003e+00 0 0 0
1833 444 4 0.0000000000000000e+00 6.7674700000000003e+00 0.0000000000000000e+00 2.3925000000000001e+00 0 0 0
1836 444 4 0.0000000000000000e+00 5.9215299999999997e+00 1.4651700000000001e+00 4.7852499999999996e+00 0 0 0
1837 444 4 0.0000000000000000e+00 5.0755999999999997e+00 2.9303499999999998e+00 0.0000000000000000e+00 0 0 0
1839 444 4 -6.2500000000000000e-02 5.0804000000000000e+00 2.9345300000000001e+00 7.1618100000000000e+00 0 0 0
1840 444 4 -6.2500000000000000e-02 7.6038800000000002e+00 4.3833000000000002e+00 7.1607099999999999e+00 0 0 0
1841 444 4 0.0000000000000000e+00 6.7674700000000003e+00 2.9303499999999998e+00 2.3925000000000001e+00 0 0 0
1844 444 4 0.0000000000000000e+00 5.9215299999999997e+00 4.3955200000000003e+00 4.7852499999999996e+00 0 0 0
1845 444 4 0.0000000000000000e+00 0.0000000000000000e+00 5.8606999999999996e+00 0.0000000000000000e+00 0 0 0
1846 444 4 0.0000000000000000e+00 2.5377999999999998e+00 7.3258700000000001e+00 0.0000000000000000e+00 0 0 0
1848 444 4 -6.2500000000000000e-02 2.5367199999999999e+00 7.3201700000000001e+00 7.2366200000000003e+00 0 0 0
1849 444 4 0.0000000000000000e+00 1.6918700000000000e+00 5.8606999999999996e+00 2.3925000000000001e+00 0 0 0
1850 444 4 0.0000000000000000e+00 4.2296699999999996e+00 7.3258700000000001e+00 2.3925000000000001e+00 0 0 0
1851 444 4 0.0000000000000000e+00 3.3837299999999999e+00 5.8606999999999996e+00 4.7852499999999996e+00 0 0 0
1852 444 4 0.0000000000000000e+00 8.4592999999999996e-01 7.3258700000000001e+00 4.7852499999999996e+00 0 0 0
1853 444 4 0.0000000000000000e+00 0.0000000000000000e+00 8.7910500000000003e+00 0.0000000000000000e+00 0 0 0
1857 444 4 0.0000000000000000e+00 1.6918700000000000e+00 8.7910500000000003e+00 2.3925000000000001e+00 0 0 0
1859 444 4 0.0000000000000000e+00 3.3837299999999999e+00 8.7910500000000003e+00 4.7852499999999996e+00 0 0 0
1861 444 4 0.0000000000000000e+00 5.0755999999999997e+00 5.8606999999999996e+00 0.0000000000000000e+00 0 0 0
1864 444 4 -6.2500000000000000e-02 7.6123200000000004e+00 7.3201700000000001e+00 7.2366200000000003e+00 0 0 0
1865 444 4 0.0000000000000000e+00 6.7674700000000003e+00 5.8606999999999996e+00 2.3925000000000001e+00 0 0 0
1868 444 4 0.0000000000000000e+00 5.9215299999999997e+00 7.3258700000000001e+00 4.7852499999999996e+00 0 0 0
1869 444 4 0.0000000000000000e+00 5.0755999999999997e+00 8.7910500000000003e+00 0.0000000000000000e+00 0 0 0
1873 444 4 0.0000000000000000e+00 6.7674700000000003e+00 8.7910500000000003e+00 2.3925000000000001e+00 0 0 0
1830 444 4 0.0000000000000000e+00 7.6134000000000004e+00 1.4651700000000001e+00 0.0000000000000000e+00 0 0 0
1831 444 4 -6.2500000000000000e-02 1.0135370000000000e+01 5.8402200000000004e+00 7.1591800000000001e+00 0 0 0
1834 444 4 0.0000000000000000e+00 9.3052700000000002e+00 1.4651700000000001e+00 2.3925000000000001e+00 0 0 0
1835 444 4 0.0000000000000000e+00 8.4593299999999996e+00 0.0000000000000000e+00 4.7852499999999996e+00 0 0 0
1838 444 4 0.0000000000000000e+00 7.6134000000000004e+00 4.3955200000000003e+00 0.0000000000000000e+00 0 0 0
1842 444 4 0.0000000000000000e+00 9.3052700000000002e+00 4.3955200000000003e+00 2.3925000000000001e+00 0 0 0
1843 444 4 0.0000000000000000e+00 8.4593299999999996e+00 2.9303499999999998e+00 4.7852499999999996e+00 0 0 0
1862 444 4 0.0000000000000000e+00 7.6134000000000004e+00 7.3258700000000001e+00 0.0000000000000000e+00 0 0 0
1866 444 4 0.0000000000000000e+00 9.3052700000000002e+00 7.3258700000000001e+00 2.3925000000000001e+00 0 0 0
1867 444 4 0.0000000000000000e+00 8.4593299999999996e+00 5.8606999999999996e+00 4.7852499999999996e+00 0 0 0
1875 444 4 0.0000000000000000e+00 8.4593299999999996e+00 8.7910500000000003e+00 4.7852499999999996e+00 0 0 0
1826 444 5 0.0000000000000000e+00 4.3329800000000001e+00 4.9780699999999998e+00 1.0011640000000000e+01 0 0 0
1827 444 5 0.0000000000000000e+00 5.8363600000000000e+00 6.6433099999999996e+00 1.0038270000000001e+01 0 0 0
1828 444 6 0.0000000000000000e+00 5.0862400000000001e+00 5.8191600000000001e+00 9.4147900000000000e+00 0 0 0
904 444 3 1.0000000000000000e+00 5.0207353734239009e+00 5.8190362610939603e+00 1.2124201565706345e+01 1 0 0
772 444 2 -8.2999999999999996e-01 1.6570121592899705e+00 7.0476667639092545e+00 1.4530687460105600e+01 -5 5 0
112 444 2 -8.2999999999999996e-01 3.2742832867997262e+00 2.2688138606675832e+00 1.0069114727884170e+01 2 5 0
773 444 1 4.1499999999999998e-01 2.1211493323914552e+00 7.3658292326059618e+00 1.3756360522145739e+01 -5 5 0
962 444 2 -8.2999999999999996e-01 4.3037328092696923e+00 5.0220905599259078e+00 1.5122653430696179e+01 -5 1 0
774 444 1 4.1499999999999998e-01 2.0654269280663682e+00 7.5104419766980897e+00 1.5262307914202038e+01 -5 5 0
113 444 1 4.1499999999999998e-01 3.6658693388668140e+00 3.1323684435787840e+00 9.9380975322190483e+00 2 5 0
60 444 1 4.1499999999999998e-01 6.2702510710254593e+00 4.7462042203232606e+00 1.5597829053480190e+01 -5 -7 0
58 444 2 -8.2999999999999996e-01 6.8753890631828858e+00 4.0805802366907544e+00 1.5924913995409579e+01 -5 -7 0
114 444 1 4.1499999999999998e-01 4.0015697407637054e+00 1.7165223556617106e+00 1.0355925330730157e+01 2 5 0
819 444 1 4.1499999999999998e-01 2.5574194698901431e+00 4.9726550684152873e+00 1.0109042012062604e+01 -6 -2 0
59 444 1 4.1499999999999998e-01 7.4874511522429152e+00 3.9372005903598652e+00 1.5203073256914704e+01 -5 -7 0
1640 444 2 -8.2999999999999996e-01 8.7697239554312656e+00 6.0627513642016408e+00 1.0377071086809124e+01 3 0 0
1641 444 1 4.1499999999999998e-01 7.8395849412775869e+00 6.0508065951784662e+00 1.0151392560997513e+01 3 0 0
964 444 1 4.1499999999999998e-01 4.2458616293635361e+00 4.1427962324158498e+00 1.5496450418021777e+01 -5 1 0
166 444 2 -8.2999999999999996e-01 5.4607931742695053e+00 3.1451026686085384e+00 1.2729213825709952e+01 0 2 0
167 444 1 4.1499999999999998e-01 5.7177277847034320e+00 2.9348571613664722e+00 1.1831431380544224e+01 0 2 0
817 444 2 -8.2999999999999996e-01 1.6318841363139915e+00 5.0569827875977262e+00 1.0338181672268799e+01 -6 -2 0
818 444 1 4.1499999999999998e-01 1.5388049162427786e+00 4.5566317668124228e+00 1.1148870887787925e+01 -6 -2 0
168 444 1 4.1499999999999998e-01 6.2539112984994967e+00 3.0018360085025666e+00 1.3245615133943105e+01 0 2 0
1642 444 1 4.1499999999999998e-01 9.0025279380299654e+00 6.9911634974776558e+00 1.0386312430045161e+01 3 0 0
963 444 1 4.1499999999999998e-01 3.8216073354332147e+00 5.5760584880572193e+00 1.5736580289969327e+01 -5 1 0
1349 444 1 4.1499999999999998e-01 8.2630433922166162e+00 1.5668644405883809e+00 1.3322480029180337e+01 3 -4 0
101 444 1 4.1499999999999998e-01 1.5361662709122903e+00 1.7137184116234829e+00 9.8649136539850204e+00 7 5 0
1676 444 2 -8.2999999999999996e-01 5.7634063996398979e+00 1.3145777402328755e+00 1.0708192160418633e+01 1 1 0
536 444 1 4.1499999999999998e-01 4.1427226990736088e+00 2.1611615066378276e+00 1.2926460915532013e+01 -8 6 0
1780 444 1 4.1499999999999998e-01 8.4714897126757389e+00 1.6766213930355429e+00 1.0487264216261202e+01 -4 -1 0
534 444 2 -8.2999999999999996e-01 3.2873280183231510e+00 1.7504325179236140e+00 1.3052291903415350e+01 -8 6 0
1347 444 2 -8.2999999999999996e-01 7.5119419570162069e+00 9.8861717127105730e-01 1.3455554326632834e+01 3 -4 0
1348 444 1 4.1499999999999998e-01 7.1830887195377224e+00 8.1550831949261959e-01 1.2573442649984905e+01 3 -4 0
1779 444 1 4.1499999999999998e-01 9.0886437384993908e+00 3.0000939522579834e-01 1.0360954076778633e+01 -4 -1 0
100 444 2 -8.2999999999999996e-01 6.8008169741857449e-01 1.4748295044133395e+00 1.0220278188375065e+01 7 5 0
535 444 1 4.1499999999999998e-01 2.9686716396149593e+00 1.5830611671922088e+00 1.2165343928554611e+01 -8 6 0
1778 444 2 -8.2999999999999996e-01 8.2675026124647726e+00 7.4510798442027948e-01 1.0570349167770459e+01 -4 -1 0
1559 444 1 4.1499999999999998e-01 1.9567954054487486e+00 3.2634542456935205e+00 1.2959173255649963e+01 -3 -2 0
1560 444 1 4.1499999999999998e-01 7.8067784467531998e-01 4.1609267468665587e+00 1.3280399281732473e+01 -3 -2 0
946 444 1 4.1499999999999998e-01 8.6381201928187874e+00 4.0690674946527476e+00 1.1100784987810140e+01 2 -1 0
577 444 1 4.1499999999999998e-01 7.0428280119141951e+00 4.8016718630301179e-02 1.4886733753303192e+01 4 -1 0
449 444 2 -8.2999999999999996e-01 3.5486413067009126e+00 7.8647182762367507e+00 1.2814966234175083e+01 0 0 0
102 444 1 4.1499999999999998e-01 5.6417999422902287e-01 2.0516951288005854e+00 1.0975278162935796e+01 7 5 0
405 444 1 4.1499999999999998e-01 8.0974326655510023e+00 5.2732625602975709e+00 1.3753910094398929e+01 3 4 0
1677 444 1 4.1499999999999998e-01 6.6647839441525596e+00 1.4166127898651859e+00 1.0402677958209892e+01 1 1 0
227 444 2 -8.2999999999999996e-01 8.8839313735511971e-01 8.0202231162514632e+00 1.0029868870800694e+01 7 -1 0
1678 444 1 4.1499999999999998e-01 5.6283460500896814e+00 3.6768382358687507e-01 1.0745372204171327e+01 1 1 0
451 444 1 4.1499999999999998e-01 4.1645319415432942e+00 8.2742225964637726e+00 1.3422598883432880e+01 0 0 0
944 444 2 -8.2999999999999996e-01 8.7323651231827704e+00 3.2366451640200986e+00 1.0637726546150590e+01 2 -1 0
229 444 1 4.1499999999999998e-01 1.2504675614445031e+00 7.1380668349527712e+00 9.9465973001637664e+00 7 -1 0
1558 444 2 -8.2999999999999996e-01 1.3171118982536327e+00 3.8477124403224714e+00 1.2552135408663613e+01 -3 -2 0
1725 444 1 4.1499999999999998e-01 9.7683163383736691e+00 1.4998284285514403e+00 1.6654470461354936e+01 -3 -2 0
886 444 2 -8.2999999999999996e-01 3.6883149808036046e+00 8.6607863018301074e+00 1.6527008537365244e+01 1 -1 0
1448 444 1 4.1499999999999998e-01 7.2834663771357784e+00 7.5658968314790584e+00 1.4365603808863113e+01 0 -3 0
433 444 1 4.1499999999999998e-01 5.9231702141407883e-01 5.7921325004919284e+00 1.4624291052164908e+01 -10 1 0
1449 444 1 4.1499999999999998e-01 8.3369446379395900e+00 7.6138489537803764e+00 1.3279427407848344e+01 0 -3 0
1447 444 2 -8.2999999999999996e-01 7.8686745874300632e+00 7.0077405170770843e+00 1.3853524776173204e+01 0 -3 0
945 444 1 4.1499999999999998e-01 9.6132118534724711e+00 3.2680719725403007e+00 1.0264425426966673e+01 2 -1 0
450 444 1 4.1499999999999998e-01 3.4388716027658699e+00 8.5079676238624771e+00 1.2114670850105798e+01 0 0 0
404 444 2 -8.2999999999999996e-01 8.0842413390023165e+00 4.3161866290740907e+00 1.3745841750514323e+01 3 4 0
406 444 1 4.1499999999999998e-01 8.9999764968648890e+00 4.0645567699463321e+00 1.3626078969238282e+01 3 4 0
276 444 1 4.1499999999999998e-01 2.6019598978983183e+00 2.4006132936867958e-01 1.4809280565282034e+01 1 3 0
1612 444 1 4.1499999999999998e-01 6.0849607147411771e+00 8.6899677340744841e+00 1.0032866265903415e+01 0 0 0
432 444 1 4.1499999999999998e-01 5.0957487465057384e-02 4.7065873548322239e+00 1.5530059296676404e+01 -10 1 0
431 444 2 -8.2999999999999996e-01 1.7442234309717482e-02 5.0268012263082946e+00 1.4628631900093390e+01 -10 1 0
1739 444 2 -8.2999999999999996e-01 7.5337968596981399e+00 1.2297044864900332e-01 2.4479765455370412e+01 2 1 0
443 444 2 -8.2999999999999996e-01 4.6060776343542145e+00 2.2288246306170358e+00 1.7017440990654119e+01 -1 -4 0
444 444 1 4.1499999999999998e-01 5.5581819983994087e+00 2.2989628736664147e+00 1.6948087777018948e+01 -1 -4 0
1545 444 1 4.1499999999999998e-01 7.2625379861902400e-02 5.3293474828022012e+00 1.7475159859784473e+01 0 5 0
209 444 1 4.1499999999999998e-01 7.9118395293133208e+00 3.3751297018196875e+00 1.7063415181198433e+01 -1 -8 0
91 444 2 -8.2999999999999996e-01 2.4922832403614148e+00 3.1163242319089934e-01 2.4892849620495671e+01 -1 -5 0
461 444 1 4.1499999999999998e-01 3.7924348538684218e+00 3.7179064174868919e+00 1.7923689715642226e+01 -4 -1 0
1142 444 1 4.1499999999999998e-01 9.8903455636772541e+00 4.6050851894537894e+00 2.1616490220996347e+01 1 4 0
1741 444 1 4.1499999999999998e-01 7.8303176041931266e+00 1.0299620894673061e+00 2.4404443283401715e+01 2 1 0
1084 444 1 4.1499999999999998e-01 1.4987748844876767e-01 6.9570412196352338e+00 2.2513095067671721e+01 -4 3 0
445 444 1 4.1499999999999998e-01 4.4200967284870147e+00 1.3061437426477001e+00 1.6843363558357677e+01 -1 -4 0
256 444 1 4.1499999999999998e-01 7.3875083002830788e-01 3.0299126222274451e+00 2.1073059725480622e+01 3 -1 0
379 444 1 4.1499999999999998e-01 5.5487174046625753e+00 6.9860729439421467e+00 2.4268661646093939e+01 4 -3 0
255 444 1 4.1499999999999998e-01 1.5705566212098160e-01 1.6719875052367625e+00 2.1404065572445749e+01 3 -1 0
378 444 1 4.1499999999999998e-01 5.9254932492292749e+00 5.9752856647663757e+00 2.3206473244875170e+01 4 -3 0
222 444 1 4.1499999999999998e-01 8.8507991503691894e+00 7.6255996173389127e+00 2.3327776136850382e+01 9 -5 0
221 444 1 4.1499999999999998e-01 9.3560972680787309e+00 7.9159588730533805e+00 2.4725009344085098e+01 9 -5 0
1353 444 2 -8.2999999999999996e-01 8.9717823678285509e+00 2.0211251129478391e+00 2.3576464410305732e+01 -2 -1 0
279 444 1 4.1499999999999998e-01 7.2141260739296502e+00 7.5821335693137293e+00 2.1687376601082498e+01 0 2 0
1083 444 1 4.1499999999999998e-01 1.5563103250132755e+00 6.9147575052118935e+00 2.1954477934396987e+01 -4 3 0
391 444 1 4.1499999999999998e-01 7.9217219105609549e-01 7.2016960161363253e+00 1.8810475604506191e+01 4 3 0
1082 444 2 -8.2999999999999996e-01 9.3210550469488385e-01 7.4949056883019178e+00 2.2390400968627375e+01 -4 3 0
92 444 1 4.1499999999999998e-01 3.0602200447317882e+00 2.6938692519325080e-01 2.4123503491013320e+01 -1 -5 0
377 444 2 -8.2999999999999996e-01 5.2045244277985345e+00 6.2398561766567697e+00 2.3777821929212028e+01 4 -3 0
1446 444 1 4.1499999999999998e-01 4.1387835330594944e+00 5.0572043806768345e+00 2.3515866188065171e+01 0 3 0
1151 444 1 4.1499999999999998e-01 9.4945104411537518e+00 5.5161686776756138e+00 1.8853178917705186e+01 2 0 0
1543 444 2 -8.2999999999999996e-01 4.8122991018552724e-01 4.4921504785491528e+00 1.7255215994154785e+01 0 5 0
1140 444 2 -8.2999999999999996e-01 9.5636209208637641e+00 4.3756715645471465e+00 2.0746517824866771e+01 1 4 0
459 444 2 -8.2999999999999996e-01 3.3927329501644441e+00 4.4948935968064063e+00 1.8314536299149282e+01 -4 -1 0
460 444 1 4.1499999999999998e-01 4.0364642744355663e+00 5.1901193565533781e+00 1.8178510786465353e+01 -4 -1 0
1672 444 1 4.1499999999999998e-01 8.3308057762505019e+00 7.6851313314813863e-01 1.9871802585195677e+01 5 6 0
1671 444 1 4.1499999999999998e-01 7.8314261434452499e+00 1.7909638152772596e+00 1.8873248575250358e+01 5 6 0
1670 444 2 -8.2999999999999996e-01 7.5684827653858777e+00 1.3052713162947045e+00 1.9655038864464608e+01 5 6 0
1307 444 1 4.1499999999999998e-01 2.9008048875736949e+00 2.3633068697176700e+00 2.0620876184097231e+01 3 8 0
75 444 1 4.1499999999999998e-01 2.7911002962896787e+00 5.1697183416120120e+00 2.0418616838877377e+01 -4 -2 0
182 444 1 4.1499999999999998e-01 5.7857765942934725e+00 7.1699771039751923e+00 1.7815275838667571e+01 1 -1 0
181 444 2 -8.2999999999999996e-01 4.9204579839487312e+00 6.7753256532691726e+00 1.7923469120036600e+01 1 -1 0
368 444 2 -8.2999999999999996e-01 9.6375215167826163e+00 1.0796675005463360e-01 2.1154533133443874e+01 -3 7 0
1306 444 1 4.1499999999999998e-01 2.8445189162950002e+00 3.3126011204551373e+00 1.9442925380218988e+01 3 8 0
1305 444 2 -8.2999999999999996e-01 2.2873884241717151e+00 2.8363386653496390e+00 2.0058565142920536e+01 3 8 0
1544 444 1 4.1499999999999998e-01 1.3078053650986687e+00 4.4943717632384148e+00 1.7737916611637122e+01 0 5 0
985 444 1 4.1499999999999998e-01 7.4858022954512933e+00 2.3915849700372762e+00 2.2672078898532074e+01 -4 0 0
906 444 1 4.1499999999999998e-01 1.6548513557838875e+00 1.4661880404972343e+00 1.9003038253228997e+01 -1 -4 0
1445 444 1 4.1499999999999998e-01 3.0774785191692078e+00 4.2091361368954505e+00 2.4183928323720277e+01 0 3 0
1355 444 1 4.1499999999999998e-01 9.6963123592557228e+00 1.6762896126575964e+00 2.4098361668553370e+01 -2 -1 0
905 444 2 -8.2999999999999996e-01 1.3116959632718874e+00 1.1507092642976060e+00 1.8167006104660466e+01 -1 -4 0
278 444 2 -8.2999999999999996e-01 7.5758078326919946e+00 8.2850269758906663e+00 2.2227153656109920e+01 0 2 0
74 444 1 4.1499999999999998e-01 2.9927780964384390e+00 5.2069787736096380e+00 2.1918561140617378e+01 -4 -2 0
96 444 1 4.1499999999999998e-01 8.0157633123263281e+00 7.5491415281094572e+00 1.8412819351345693e+01 -3 4 0
1149 444 2 -8.2999999999999996e-01 9.5902881575303542e+00 6.4255169599393032e+00 1.8570081366577082e+01 2 0 0
1444 444 2 -8.2999999999999996e-01 3.5205190789621441e+00 4.3463392549381243e+00 2.3346597978884972e+01 0 3 0
984 444 1 4.1499999999999998e-01 7.2489682942236184e+00 2.1085322109137454e+00 2.1203853210009267e+01 -4 0 0
983 444 2 -8.2999999999999996e-01 6.9173572726585251e+00 2.6252034734379905e+00 2.1938236078271249e+01 -4 0 0
901 444 2 -8.2999999999999996e-01 7.0352085657381815e+00 5.4124970677588475e+00 2.1942027791638395e+01 3 -3 0
1365 444 1 4.1499999999999998e-01 3.6882741271672588e+00 5.2152699472257624e-01 2.2200059509375052e+01 -3 8 0
94 444 2 -8.2999999999999996e-01 7.4957327400510385e+00 8.2680186304451535e+00 1.8053631702787378e+01 -3 4 0
208 444 2 -8.2999999999999996e-01 8.5817074306682635e+00 2.8781369307270319e+00 1.7532996673776676e+01 -1 -8 0
210 444 1 4.1499999999999998e-01 9.3892680115342699e+00 3.3727848558227098e+00 1.7393709463834053e+01 -1 -8 0
1354 444 1 4.1499999999999998e-01 9.3849454623065469e+00 2.6323113192050513e+00 2.2966562981505760e+01 -2 -1 0
183 444 1 4.1499999999999998e-01 4.3148997687414159e+00 7.4213238698046942e+00 1.7559851988744235e+01 1 -1 0
1135 444 1 4.1499999999999998e-01 5.1669221421332763e+00 2.3341407913282977e+00 2.1705675412441661e+01 3 1 0
1136 444 1 4.1499999999999998e-01 4.0776890655796532e+00 2.9698909444611368e+00 2.2543104439326974e+01 3 1 0
1134 444 2 -8.2999999999999996e-01 4.2588747422217006e+00 2.2145025641382921e+00 2.1983826484544117e+01 3 1 0
639 444 2 -8.2999999999999996e-01 3.8370931922771319e+00 7.8910244798198139e+00 2.0205165408372498e+01 -1 0 0
641 444 1 4.1499999999999998e-01 3.2909961932682870e+00 7.3381369757664201e+00 2.0764025537113010e+01 -1 0 0
640 444 1 4.1499999999999998e-01 4.4508901898892352e+00 7.2832982538281961e+00 1.9792669334990585e+01 -1 0 0
73 444 2 -8.2999999999999996e-01 2.6592128092991860e+00 5.7257266595657024e+00 2.1186531093015610e+01 -4 -2 0
902 444 1 4.1499999999999998e-01 6.7588397947062981e+00 4.5008028365406085e+00 2.1848938566522879e+01 3 -3 0
903 444 1 4.1499999999999998e-01 7.9672865935362429e+00 5.4041432917177712e+00 2.1724330046487612e+01 3 -3 0
907 444 1 4.1499999999999998e-01 8.6680628748788791e-01 1.9091036082266430e+00 1.7788663671422409e+01 -1 -4 0
220 444 2 -8.2999999999999996e-01 9.5100568520636610e+00 7.3532948247525738e+00 2.3966103747795316e+01 9 -5 0
1096 444 1 4.1499999999999998e-01 9.8985750413093498e+00 5.5670421415789644e+00 2.3739236600946800e+01 13 10 0
1060 444 1 4.1499999999999998e-01 6.5469646668580541e+00 2.1626421284320155e-01 1.8761837276566272e+01 1 -3 0
370 444 1 4.1499999999999998e-01 9.6892359642896739e+00 1.1919599685974447e-02 2.2105497165666819e+01 -3 7 0
1074 444 1 4.1499999999999998e-01 1.3786247842114438e-01 1.0490851341608858e+00 2.5145047872935628e+01 4 -5 0
1343 444 1 4.1499999999999998e-01 3.0661083493822221e+00 2.8635605304410845e+00 2.6705439148541043e+01 -5 4 0
1341 444 2 -8.2999999999999996e-01 2.7275761476646121e+00 2.8647404576284807e+00 2.5810103358607403e+01 -5 4 0
1342 444 1 4.1499999999999998e-01 2.6174431470260067e+00 1.9387902424819496e+00 2.5593956208154221e+01 -5 4 0
1847 444 4 -6.2500000000000000e-02 5.0597700000000003e+00 1.1700920000000000e+01 7.1591800000000001e+00 0 0 0
1854 444 4 0.0000000000000000e+00 2.5377999999999998e+00 1.0256220000000001e+01 0.0000000000000000e+00 0 0 0
1855 444 4 -6.2500000000000000e-02 4.7999999999999996e-03 8.7952300000000001e+00 7.1618100000000000e+00 0 0 0
1856 444 4 -6.2500000000000000e-02 2.5282800000000001e+00 1.0244000000000000e+01 7.1607099999999999e+00 0 0 0
1858 444 4 0.0000000000000000e+00 4.2296699999999996e+00 1.0256220000000001e+01 2.3925000000000001e+00 0 0 0
1860 444 4 0.0000000000000000e+00 8.4592999999999996e-01 1.0256220000000001e+01 4.7852499999999996e+00 0 0 0
1871 444 4 -6.2500000000000000e-02 5.0804000000000000e+00 8.7952300000000001e+00 7.1618100000000000e+00 0 0 0
1872 444 4 -6.2500000000000000e-02 7.6038800000000002e+00 1.0244000000000000e+01 7.1607099999999999e+00 0 0 0
1876 444 4 0.0000000000000000e+00 5.9215299999999997e+00 1.0256220000000001e+01 4.7852499999999996e+00 0 0 0
1877 444 4 0.0000000000000000e+00 0.0000000000000000e+00 1.1721399999999999e+01 0.0000000000000000e+00 0 0 0
1878 444 4 0.0000000000000000e+00 2.5377999999999998e+00 1.3186570000000000e+01 0.0000000000000000e+00 0 0 0
1879 444 4 -6.2500000000000000e-02 5.0597700000000003e+00 1.7561620000000001e+01 7.1591800000000001e+00 0 0 0
1880 444 4 -6.2500000000000000e-02 2.5367199999999999e+00 1.3180870000000001e+01 7.2366200000000003e+00 0 0 0
1881 444 4 0.0000000000000000e+00 1.6918700000000000e+00 1.1721399999999999e+01 2.3925000000000001e+00 0 0 0
1882 444 4 0.0000000000000000e+00 4.2296699999999996e+00 1.3186570000000000e+01 2.3925000000000001e+00 0 0 0
1883 444 4 0.0000000000000000e+00 3.3837299999999999e+00 1.1721399999999999e+01 4.7852499999999996e+00 0 0 0
1884 444 4 0.0000000000000000e+00 8.4592999999999996e-01 1.3186570000000000e+01 4.7852499999999996e+00 0 0 0
1885 444 4 0.0000000000000000e+00 0.0000000000000000e+00 1.4651750000000000e+01 0.0000000000000000e+00 0 0 0
1886 444 4 0.0000000000000000e+00 2.5377999999999998e+00 1.6116920000000000e+01 0.0000000000000000e+00 0 0 0
1887 444 4 -6.2500000000000000e-02 4.7999999999999996e-03 1.4655930000000000e+01 7.1618100000000000e+00 0 0 0
1888 444 4 -6.2500000000000000e-02 2.5282800000000001e+00 1.6104700000000001e+01 7.1607099999999999e+00 0 0 0
1889 444 4 0.0000000000000000e+00 1.6918700000000000e+00 1.4651750000000000e+01 2.3925000000000001e+00 0 0 0
1890 444 4 0.0000000000000000e+00 4.2296699999999996e+00 1.6116920000000000e+01 2.3925000000000001e+00 0 0 0
1891 444 4 0.0000000000000000e+00 3.3837299999999999e+00 1.4651750000000000e+01 4.7852499999999996e+00 0 0 0
1892 444 4 0.0000000000000000e+00 8.4592999999999996e-01 1.6116920000000000e+01 4.7852499999999996e+00 0 0 0
1896 444 4 0.0000000000000000e+00 5.0755999999999997e+00 1.1721399999999999e+01 0.0000000000000000e+00 0 0 0
1899 444 4 -6.2500000000000000e-02 7.6123200000000004e+00 1.3180870000000001e+01 7.2366200000000003e+00 0 0 0
1900 444 4 0.0000000000000000e+00 6.7674700000000003e+00 1.1721399999999999e+01 2.3925000000000001e+00 0 0 0
1903 444 4 0.0000000000000000e+00 5.9215299999999997e+00 1.3186570000000000e+01 4.7852499999999996e+00 0 0 0
1904 444 4 0.0000000000000000e+00 5.0755999999999997e+00 1.4651750000000000e+01 0.0000000000000000e+00 0 0 0
1906 444 4 -6.2500000000000000e-02 5.0804000000000000e+00 1.4655930000000000e+01 7.1618100000000000e+00 0 0 0
1907 444 4 -6.2500000000000000e-02 7.6038800000000002e+00 1.6104700000000001e+01 7.1607099999999999e+00 0 0 0
1908 444 4 0.0000000000000000e+00 6.7674700000000003e+00 1.4651750000000000e+01 2.3925000000000001e+00 0 0 0
1911 444 4 0.0000000000000000e+00 5.9215299999999997e+00 1.6116920000000000e+01 4.7852499999999996e+00 0 0 0
1912 444 4 0.0000000000000000e+00 0.0000000000000000e+00 1.7582100000000001e+01 0.0000000000000000e+00 0 0 0
1916 444 4 0.0000000000000000e+00 1.6918700000000000e+00 1.7582100000000001e+01 2.3925000000000001e+00 0 0 0
1918 444 4 0.0000000000000000e+00 3.3837299999999999e+00 1.7582100000000001e+01 4.7852499999999996e+00 0 0 0
1928 444 4 0.0000000000000000e+00 5.0755999999999997e+00 1.7582100000000001e+01 0.0000000000000000e+00 0 0 0
1932 444 4 0.0000000000000000e+00 6.7674700000000003e+00 1.7582100000000001e+01 2.3925000000000001e+00 0 0 0
1863 444 4 -6.2500000000000000e-02 1.0135370000000000e+01 1.1700920000000000e+01 7.1591800000000001e+00 0 0 0
1870 444 4 0.0000000000000000e+00 7.6134000000000004e+00 1.0256220000000001e+01 0.0000000000000000e+00 0 0 0
1874 444 4 0.0000000000000000e+00 9.3052700000000002e+00 1.0256220000000001e+01 2.3925000000000001e+00 0 0 0
1897 444 4 0.0000000000000000e+00 7.6134000000000004e+00 1.3186570000000000e+01 0.0000000000000000e+00 0 0 0
1898 444 4 -6.2500000000000000e-02 1.0135370000000000e+01 1.7561620000000001e+01 7.1591800000000001e+00 0 0 0
1901 444 4 0.0000000000000000e+00 9.3052700000000002e+00 1.3186570000000000e+01 2.3925000000000001e+00 0 0 0
1902 444 4 0.0000000000000000e+00 8.4593299999999996e+00 1.1721399999999999e+01 4.7852499999999996e+00 0 0 0
1905 444 4 0.0000000000000000e+00 7.6134000000000004e+00 1.6116920000000000e+01 0.0000000000000000e+00 0 0 0
1909 444 4 0.0000000000000000e+00 9.3052700000000002e+00 1.6116920000000000e+01 2.3925000000000001e+00 0 0 0
1910 444 4 0.0000000000000000e+00 8.4593299999999996e+00 1.4651750000000000e+01 4.7852499999999996e+00 0 0 0
1934 444 4 0.0000000000000000e+00 8.4593299999999996e+00 1.7582100000000001e+01 4.7852499999999996e+00 0 0 0
1893 444 5 0.0000000000000000e+00 4.3329800000000001e+00 1.6699470000000002e+01 1.0011640000000000e+01 0 0 0
1895 444 6 0.0000000000000000e+00 5.0862400000000001e+00 1.7540559999999999e+01 9.4147900000000000e+00 0 0 0
1578 444 1 4.1499999999999998e-01 1.6672699902850858e+00 1.6321531977003470e+01 1.1400533465991662e+01 4 0 0
916 444 1 4.1499999999999998e-01 5.2394093316422108e+00 1.4698211333349382e+01 1.0366460586411732e+01 -1 -7 0
914 444 2 -8.2999999999999996e-01 5.7602522185200531e+00 1.3929840509517419e+01 1.0132878410791891e+01 -1 -7 0
915 444 1 4.1499999999999998e-01 5.1384776273824908e+00 1.3202444846068971e+01 1.0155771176376925e+01 -1 -7 0
225 444 1 4.1499999999999998e-01 4.0215282115401338e+00 1.2507485608554761e+01 1.1118420518422386e+01 0 2 0
420 444 1 4.1499999999999998e-01 7.4892373046027831e+00 1.4490499751863686e+01 1.0540817788395787e+01 -2 3 0
421 444 1 4.1499999999999998e-01 8.7964695288420423e+00 1.5220756284189060e+01 1.0763897526463241e+01 -2 3 0
223 444 2 -8.2999999999999996e-01 4.5244169381942081e+00 1.1700823333711170e+01 1.1006033883990138e+01 0 2 0
419 444 2 -8.2999999999999996e-01 8.3776936819643577e+00 1.4367225940680337e+01 1.0875005806605103e+01 -2 3 0
224 444 1 4.1499999999999998e-01 3.8883001345085151e+00 1.1065169788155448e+01 1.0678113813501819e+01 0 2 0
1683 444 1 4.1499999999999998e-01 5.6705051154466490e+00 1.1948915162237038e+01 1.2190468138742979e+01 -3 -1 0
1682 444 2 -8.2999999999999996e-01 6.3001995555281889e+00 1.2105396754959369e+01 1.2894194031717618e+01 -3 -1 0
440 444 2 -8.2999999999999996e-01 5.6949423881076369e+00 1.4437615503656630e+01 1.4155960631525044e+01 0 -5 0
441 444 1 4.1499999999999998e-01 5.6759679921061554e+00 1.4652841725740767e+01 1.5088457645506743e+01 0 -5 0
491 444 1 4.1499999999999998e-01 7.6749789468682810e+00 1.1367486370605306e+01 1.0504575512699956e+01 9 1 0
490 444 1 4.1499999999999998e-01 8.4592575723506727e+00 1.2652332145000479e+01 1.0665738882744586e+01 9 1 0
1733 444 2 -8.2999999999999996e-01 3.0826526200236004e+00 1.3899191226079807e+01 1.0972698166128131e+01 2 0 0
1734 444 1 4.1499999999999998e-01 3.1643432996133201e+00 1.4465601461518595e+01 1.1739990402445533e+01 2 0 0
1735 444 1 4.1499999999999998e-01 2.1934972892450624e+00 1.3548862355229810e+01 1.1026588328523655e+01 2 0 0
1684 444 1 4.1499999999999998e-01 6.0340786287331314e+00 1.2943476367416229e+01 1.3272390857762019e+01 -3 -1 0
1576 444 2 -8.2999999999999996e-01 1.6392604047378410e+00 1.6637254838834057e+01 1.0497335473638771e+01 4 0 0
241 444 1 4.1499999999999998e-01 7.2990037377852002e-01 1.2119895013241200e+01 1.1182245754999897e+01 -6 -4 0