LAMMPS data file via write_data, version 11 Aug 2017, timestep = 0

2412 atoms
6 atom types
1200 bonds
1 bond types
600 angles
1 angle types

0.0000000000000000e+00 3.0453299999999999e+01 xlo xhi
0.0000000000000000e+00 3.5164439999999999e+01 ylo yhi
0.0000000000000000e+00 5.0000000000000000e+01 zlo zhi

Masses

1 1.0079
2 15.9994
3 22.9898
4 107.868
5 15.9994
6 12.011

Bond Coeffs # harmonic

1 450 0.9572

Angle Coeffs # harmonic

1 55 104.52

Atoms # full

1810 444 4 0.0000000000000000e+00 0.0000000000000000e+00 0.0000000000000000e+00 0.0000000000000000e+00 0 0 0
1811 444 4 0.0000000000000000e+00 2.5377999999999998e+00 1.4651700000000001e+00 0.0000000000000000e+00 0 0 0
1812 444 4 -6.2500000000000000e-02 5.0597700000000003e+00 5.8402200000000004e+00 7.1591800000000001e+00 0 0 0
1813 444 4 -6.2500000000000000e-02 2.5367199999999999e+00 1.4594700000000000e+00 7.2366200000000003e+00 0 0 0
1814 444 4 0.0000000000000000e+00 1.6918700000000000e+00 0.0000000000000000e+00 2.3925000000000001e+00 0 0 0
1815 444 4 0.0000000000000000e+00 4.2296699999999996e+00 1.4651700000000001e+00 2.3925000000000001e+00 0 0 0
1816 444 4 0.0000000000000000e+00 3.3837299999999999e+00 0.0000000000000000e+00 4.7852499999999996e+00 0 0 0
1817 444 4 0.0000000000000000e+00 8.4592999999999996e-01 1.4651700000000001e+00 4.7852499999999996e+00 0 0 0
1818 444 4 0.0000000000000000e+00 0.0000000000000000e+00 2.9303499999999998e+00 0.0000000000000000e+00 0 0 0
1819 444 4 0.0000000000000000e+00 2.5377999999999998e+00 4.3955200000000003e+00 0.0000000000000000e+00 0 0 0
1820 444 4 -6.2500000000000000e-02 4.7999999999999996e-03 2.9345300000000001e+00 7.1618100000000000e+00 0 0 0
1821 444 4 -6.2500000000000000e-02 2.5282800000000001e+00 4.3833000000000002e+00 7.1607099999999999e+00 0 0 0
1822 444 4 0.0000000000000000e+00 1.6918700000000000e+00 2.9303499999999998e+00 2.3925000000000001e+00 0 0 0
1823 444 4 0.0000000000000000e+00 4.2296699999999996e+00 4.3955200000000003e+00 2.3925000000000001e+00 0 0 0
1824 444 4 0.0000000000000000e+00 3.3837299999999999e+00 2.9303499999999998e+00 4.7852499999999996e+00 0 0 0
1825 444 4 0.0000000000000000e+00 8.4592999999999996e-01 4.3955200000000003e+00 4.7852499999999996e+00 0 0 0
1829 444 4 0.0000000000000000e+00 5.0755999999999997e+00 0.0000000000000000e+00 0.0000000000000000e+00 0 0 0
1832 444 4 -6.2500000000000000e-02 7.6123200000000004e+00 1.4594700000000000e+00 7.2366200000000003e+00 0 0 0
1833 444 4 0.0000000000000000e+00 6.7674700000000003e+00 0.0000000000000000e+00 2.3925000000000001e+00 0 0 0
1836 444 4 0.0000000000000000e+00 5.9215299999999997e+00 1.4651700000000001e+00 4.7852499999999996e+00 0 0 0
1837 444 4 0.0000000000000000e+00 5.0755999999999997e+00 2.9303499999999998e+00 0.0000000000000000e+00 0 0 0
1839 444 4 -6.2500000000000000e-02 5.0804000000000000e+00 2.9345300000000001e+00 7.1618100000000000e+00 0 0 0
1840 444 4 -6.2500000000000000e-02 7.6038800000000002e+00 4.3833000000000002e+00 7.1607099999999999e+00 0 0 0
1841 444 4 0.0000000000000000e+00 6.7674700000000003e+00 2.9303499999999998e+00 2.3925000000000001e+00 0 0 0
1844 444 4 0.0000000000000000e+00 5.9215299999999997e+00 4.3955200000000003e+00 4.7852499999999996e+00 0 0 0
1845 444 4 0.0000000000000000e+00 0.0000000000000000e+00 5.8606999999999996e+00 0.0000000000000000e+00 0 0 0
1846 444 4 0.0000000000000000e+00 2.5377999999999998e+00 7.3258700000000001e+00 0.0000000000000000e+00 0 0 0
1848 444 4 -6.2500000000000000e-02 2.5367199999999999e+00 7.3201700000000001e+00 7.2366200000000003e+00 0 0 0
1849 444 4 0.0000000000000000e+00 1.6918700000000000e+00 5.8606999999999996e+00 2.3925000000000001e+00 0 0 0
1850 444 4 0.0000000000000000e+00 4.2296699999999996e+00 7.3258700000000001e+00 2.3925000000000001e+00 0 0 0
1851 444 4 0.0000000000000000e+00 3.3837299999999999e+00 5.8606999999999996e+00 4.7852499999999996e+00 0 0 0
1852 444 4 0.0000000000000000e+00 8.4592999999999996e-01 7.3258700000000001e+00 4.7852499999999996e+00 0 0 0
1853 444 4 0.0000000000000000e+00 0.0000000000000000e+00 8.7910500000000003e+00 0.0000000000000000e+00 0 0 0
1857 444 4 0.0000000000000000e+00 1.6918700000000000e+00 8.7910500000000003e+00 2.3925000000000001e+00 0 0 0
1859 444 4 0.0000000000000000e+00 3.3837299999999999e+00 8.7910500000000003e+00 4.7852499999999996e+00 0 0 0
1861 444 4 0.0000000000000000e+00 5.0755999999999997e+00 5.8606999999999996e+00 0.0000000000000000e+00 0 0 0
1864 444 4 -6.2500000000000000e-02 7.6123200000000004e+00 7.3201700000000001e+00 7.2366200000000003e+00 0 0 0
1865 444 4 0.0000000000000000e+00 6.7674700000000003e+00 5.8606999999999996e+00 2.3925000000000001e+00 0 0 0
1868 444 4 0.0000000000000000e+00 5.9215299999999997e+00 7.3258700000000001e+00 4.7852499999999996e+00 0 0 0
1869 444 4 0.0000000000000000e+00 5.0755999999999997e+00 8.7910500000000003e+00 0.0000000000000000e+00 0 0 0
1873 444 4 0.0000000000000000e+00 6.7674700000000003e+00 8.7910500000000003e+00 2.3925000000000001e+00 0 0 0
1830 444 4 0.0000000000000000e+00 7.6134000000000004e+00 1.4651700000000001e+00 0.0000000000000000e+00 0 0 0
1831 444 4 -6.2500000000000000e-02 1.0135370000000000e+01 5.8402200000000004e+00 7.1591800000000001e+00 0 0 0
1834 444 4 0.0000000000000000e+00 9.3052700000000002e+00 1.4651700000000001e+00 2.3925000000000001e+00 0 0 0
1835 444 4 0.0000000000000000e+00 8.4593299999999996e+00 0.0000000000000000e+00 4.7852499999999996e+00 0 0 0
1838 444 4 0.0000000000000000e+00 7.6134000000000004e+00 4.3955200000000003e+00 0.0000000000000000e+00 0 0 0
1842 444 4 0.0000000000000000e+00 9.3052700000000002e+00 4.3955200000000003e+00 2.3925000000000001e+00 0 0 0
1843 444 4 0.0000000000000000e+00 8.4593299999999996e+00 2.9303499999999998e+00 4.7852499999999996e+00 0 0 0
1862 444 4 0.0000000000000000e+00 7.6134000000000004e+00 7.3258700000000001e+00 0.0000000000000000e+00 0 0 0
1866 444 4 0.0000000000000000e+00 9.3052700000000002e+00 7.3258700000000001e+00 2.3925000000000001e+00 0 0 0
1867 444 4 0.0000000000000000e+00 8.4593299999999996e+00 5.8606999999999996e+00 4.7852499999999996e+00 0 0 0
1875 444 4 0.0000000000000000e+00 8.4593299999999996e+00 8.7910500000000003e+00 4.7852499999999996e+00 0 0 0
2011 444 4 0.0000000000000000e+00 1.0151199999999999e+01 0.0000000000000000e+00 0.0000000000000000e+00 0 0 0
2012 444 4 0.0000000000000000e+00 1.2689000000000000e+01 1.4651700000000001e+00 0.0000000000000000e+00 0 0 0
2013 444 4 -6.2500000000000000e-02 1.5210970000000000e+01 5.8402200000000004e+00 7.1591800000000001e+00 0 0 0
2014 444 4 -6.2500000000000000e-02 1.2687920000000000e+01 1.4594700000000000e+00 7.2366200000000003e+00 0 0 0
2015 444 4 0.0000000000000000e+00 1.1843070000000001e+01 0.0000000000000000e+00 2.3925000000000001e+00 0 0 0
2016 444 4 0.0000000000000000e+00 1.4380870000000000e+01 1.4651700000000001e+00 2.3925000000000001e+00 0 0 0
2017 444 4 0.0000000000000000e+00 1.3534929999999999e+01 0.0000000000000000e+00 4.7852499999999996e+00 0 0 0
2018 444 4 0.0000000000000000e+00 1.0997130000000000e+01 1.4651700000000001e+00 4.7852499999999996e+00 0 0 0
2019 444 4 0.0000000000000000e+00 1.0151199999999999e+01 2.9303499999999998e+00 0.0000000000000000e+00 0 0 0
2020 444 4 0.0000000000000000e+00 1.2689000000000000e+01 4.3955200000000003e+00 0.0000000000000000e+00 0 0 0
2021 444 4 -6.2500000000000000e-02 1.0156000000000001e+01 2.9345300000000001e+00 7.1618100000000000e+00 0 0 0
2022 444 4 -6.2500000000000000e-02 1.2679480000000000e+01 4.3833000000000002e+00 7.1607099999999999e+00 0 0 0
2023 444 4 0.0000000000000000e+00 1.1843070000000001e+01 2.9303499999999998e+00 2.3925000000000001e+00 0 0 0
2024 444 4 0.0000000000000000e+00 1.4380870000000000e+01 4.3955200000000003e+00 2.3925000000000001e+00 0 0 0
2025 444 4 0.0000000000000000e+00 1.3534929999999999e+01 2.9303499999999998e+00 4.7852499999999996e+00 0 0 0
2026 444 4 0.0000000000000000e+00 1.0997130000000000e+01 4.3955200000000003e+00 4.7852499999999996e+00 0 0 0
2046 444 4 0.0000000000000000e+00 1.0151199999999999e+01 5.8606999999999996e+00 0.0000000000000000e+00 0 0 0
2047 444 4 0.0000000000000000e+00 1.2689000000000000e+01 7.3258700000000001e+00 0.0000000000000000e+00 0 0 0
2049 444 4 -6.2500000000000000e-02 1.2687920000000000e+01 7.3201700000000001e+00 7.2366200000000003e+00 0 0 0
2050 444 4 0.0000000000000000e+00 1.1843070000000001e+01 5.8606999999999996e+00 2.3925000000000001e+00 0 0 0
2051 444 4 0.0000000000000000e+00 1.4380870000000000e+01 7.3258700000000001e+00 2.3925000000000001e+00 0 0 0
2052 444 4 0.0000000000000000e+00 1.3534929999999999e+01 5.8606999999999996e+00 4.7852499999999996e+00 0 0 0
2053 444 4 0.0000000000000000e+00 1.0997130000000000e+01 7.3258700000000001e+00 4.7852499999999996e+00 0 0 0
2054 444 4 0.0000000000000000e+00 1.0151199999999999e+01 8.7910500000000003e+00 0.0000000000000000e+00 0 0 0
2058 444 4 0.0000000000000000e+00 1.1843070000000001e+01 8.7910500000000003e+00 2.3925000000000001e+00 0 0 0
2060 444 4 0.0000000000000000e+00 1.3534929999999999e+01 8.7910500000000003e+00 4.7852499999999996e+00 0 0 0
2030 444 4 0.0000000000000000e+00 1.5226800000000001e+01 0.0000000000000000e+00 0.0000000000000000e+00 0 0 0
2031 444 4 0.0000000000000000e+00 1.7764600000000002e+01 1.4651700000000001e+00 0.0000000000000000e+00 0 0 0
2032 444 4 -6.2500000000000000e-02 2.0286570000000001e+01 5.8402200000000004e+00 7.1591800000000001e+00 0 0 0
2033 444 4 -6.2500000000000000e-02 1.7763520000000000e+01 1.4594700000000000e+00 7.2366200000000003e+00 0 0 0
2034 444 4 0.0000000000000000e+00 1.6918669999999999e+01 0.0000000000000000e+00 2.3925000000000001e+00 0 0 0
2035 444 4 0.0000000000000000e+00 1.9456469999999999e+01 1.4651700000000001e+00 2.3925000000000001e+00 0 0 0
2036 444 4 0.0000000000000000e+00 1.8610530000000001e+01 0.0000000000000000e+00 4.7852499999999996e+00 0 0 0
2037 444 4 0.0000000000000000e+00 1.6072730000000000e+01 1.4651700000000001e+00 4.7852499999999996e+00 0 0 0
2038 444 4 0.0000000000000000e+00 1.5226800000000001e+01 2.9303499999999998e+00 0.0000000000000000e+00 0 0 0
2039 444 4 0.0000000000000000e+00 1.7764600000000002e+01 4.3955200000000003e+00 0.0000000000000000e+00 0 0 0
2040 444 4 -6.2500000000000000e-02 1.5231600000000000e+01 2.9345300000000001e+00 7.1618100000000000e+00 0 0 0
2041 444 4 -6.2500000000000000e-02 1.7755080000000000e+01 4.3833000000000002e+00 7.1607099999999999e+00 0 0 0
2042 444 4 0.0000000000000000e+00 1.6918669999999999e+01 2.9303499999999998e+00 2.3925000000000001e+00 0 0 0
2043 444 4 0.0000000000000000e+00 1.9456469999999999e+01 4.3955200000000003e+00 2.3925000000000001e+00 0 0 0
2044 444 4 0.0000000000000000e+00 1.8610530000000001e+01 2.9303499999999998e+00 4.7852499999999996e+00 0 0 0
2045 444 4 0.0000000000000000e+00 1.6072730000000000e+01 4.3955200000000003e+00 4.7852499999999996e+00 0 0 0
2062 444 4 0.0000000000000000e+00 1.5226800000000001e+01 5.8606999999999996e+00 0.0000000000000000e+00 0 0 0
2063 444 4 0.0000000000000000e+00 1.7764600000000002e+01 7.3258700000000001e+00 0.0000000000000000e+00 0 0 0
2065 444 4 -6.2500000000000000e-02 1.7763520000000000e+01 7.3201700000000001e+00 7.2366200000000003e+00 0 0 0
2066 444 4 0.0000000000000000e+00 1.6918669999999999e+01 5.8606999999999996e+00 2.3925000000000001e+00 0 0 0
2067 444 4 0.0000000000000000e+00 1.9456469999999999e+01 7.3258700000000001e+00 2.3925000000000001e+00 0 0 0
2068 444 4 0.0000000000000000e+00 1.8610530000000001e+01 5.8606999999999996e+00 4.7852499999999996e+00 0 0 0
2069 444 4 0.0000000000000000e+00 1.6072730000000000e+01 7.3258700000000001e+00 4.7852499999999996e+00 0 0 0
2070 444 4 0.0000000000000000e+00 1.5226800000000001e+01 8.7910500000000003e+00 0.0000000000000000e+00 0 0 0
2074 444 4 0.0000000000000000e+00 1.6918669999999999e+01 8.7910500000000003e+00 2.3925000000000001e+00 0 0 0
2076 444 4 0.0000000000000000e+00 1.8610530000000001e+01 8.7910500000000003e+00 4.7852499999999996e+00 0 0 0
2212 444 4 0.0000000000000000e+00 2.0302399999999999e+01 0.0000000000000000e+00 0.0000000000000000e+00 0 0 0
2215 444 4 -6.2500000000000000e-02 2.2839120000000001e+01 1.4594700000000000e+00 7.2366200000000003e+00 0 0 0
2216 444 4 0.0000000000000000e+00 2.1994270000000000e+01 0.0000000000000000e+00 2.3925000000000001e+00 0 0 0
2219 444 4 0.0000000000000000e+00 2.1148330000000001e+01 1.4651700000000001e+00 4.7852499999999996e+00 0 0 0
2220 444 4 0.0000000000000000e+00 2.0302399999999999e+01 2.9303499999999998e+00 0.0000000000000000e+00 0 0 0
2222 444 4 -6.2500000000000000e-02 2.0307200000000002e+01 2.9345300000000001e+00 7.1618100000000000e+00 0 0 0
2223 444 4 -6.2500000000000000e-02 2.2830680000000001e+01 4.3833000000000002e+00 7.1607099999999999e+00 0 0 0
2224 444 4 0.0000000000000000e+00 2.1994270000000000e+01 2.9303499999999998e+00 2.3925000000000001e+00 0 0 0
2227 444 4 0.0000000000000000e+00 2.1148330000000001e+01 4.3955200000000003e+00 4.7852499999999996e+00 0 0 0
2247 444 4 0.0000000000000000e+00 2.0302399999999999e+01 5.8606999999999996e+00 0.0000000000000000e+00 0 0 0
2250 444 4 -6.2500000000000000e-02 2.2839120000000001e+01 7.3201700000000001e+00 7.2366200000000003e+00 0 0 0
2251 444 4 0.0000000000000000e+00 2.1994270000000000e+01 5.8606999999999996e+00 2.3925000000000001e+00 0 0 0
2254 444 4 0.0000000000000000e+00 2.1148330000000001e+01 7.3258700000000001e+00 4.7852499999999996e+00 0 0 0
2255 444 4 0.0000000000000000e+00 2.0302399999999999e+01 8.7910500000000003e+00 0.0000000000000000e+00 0 0 0
2259 444 4 0.0000000000000000e+00 2.1994270000000000e+01 8.7910500000000003e+00 2.3925000000000001e+00 0 0 0
2213 444 4 0.0000000000000000e+00 2.2840199999999999e+01 1.4651700000000001e+00 0.0000000000000000e+00 0 0 0
2214 444 4 -6.2500000000000000e-02 2.5362169999999999e+01 5.8402200000000004e+00 7.1591800000000001e+00 0 0 0
2217 444 4 0.0000000000000000e+00 2.4532070000000001e+01 1.4651700000000001e+00 2.3925000000000001e+00 0 0 0
2218 444 4 0.0000000000000000e+00 2.3686129999999999e+01 0.0000000000000000e+00 4.7852499999999996e+00 0 0 0
2221 444 4 0.0000000000000000e+00 2.2840199999999999e+01 4.3955200000000003e+00 0.0000000000000000e+00 0 0 0
2225 444 4 0.0000000000000000e+00 2.4532070000000001e+01 4.3955200000000003e+00 2.3925000000000001e+00 0 0 0
2226 444 4 0.0000000000000000e+00 2.3686129999999999e+01 2.9303499999999998e+00 4.7852499999999996e+00 0 0 0
2231 444 4 0.0000000000000000e+00 2.5378000000000000e+01 0.0000000000000000e+00 0.0000000000000000e+00 0 0 0
2232 444 4 0.0000000000000000e+00 2.7915800000000001e+01 1.4651700000000001e+00 0.0000000000000000e+00 0 0 0
2233 444 4 -6.2500000000000000e-02 3.0437770000000000e+01 5.8402200000000004e+00 7.1591800000000001e+00 0 0 0
2234 444 4 -6.2500000000000000e-02 2.7914719999999999e+01 1.4594700000000000e+00 7.2366200000000003e+00 0 0 0
2235 444 4 0.0000000000000000e+00 2.7069870000000002e+01 0.0000000000000000e+00 2.3925000000000001e+00 0 0 0
2236 444 4 0.0000000000000000e+00 2.9607669999999999e+01 1.4651700000000001e+00 2.3925000000000001e+00 0 0 0
2237 444 4 0.0000000000000000e+00 2.8761730000000000e+01 0.0000000000000000e+00 4.7852499999999996e+00 0 0 0
2238 444 4 0.0000000000000000e+00 2.6223929999999999e+01 1.4651700000000001e+00 4.7852499999999996e+00 0 0 0
2239 444 4 0.0000000000000000e+00 2.5378000000000000e+01 2.9303499999999998e+00 0.0000000000000000e+00 0 0 0
2240 444 4 0.0000000000000000e+00 2.7915800000000001e+01 4.3955200000000003e+00 0.0000000000000000e+00 0 0 0
2241 444 4 -6.2500000000000000e-02 2.5382800000000000e+01 2.9345300000000001e+00 7.1618100000000000e+00 0 0 0
2242 444 4 -6.2500000000000000e-02 2.7906279999999999e+01 4.3833000000000002e+00 7.1607099999999999e+00 0 0 0
2243 444 4 0.0000000000000000e+00 2.7069870000000002e+01 2.9303499999999998e+00 2.3925000000000001e+00 0 0 0
2244 444 4 0.0000000000000000e+00 2.9607669999999999e+01 4.3955200000000003e+00 2.3925000000000001e+00 0 0 0
2245 444 4 0.0000000000000000e+00 2.8761730000000000e+01 2.9303499999999998e+00 4.7852499999999996e+00 0 0 0
2246 444 4 0.0000000000000000e+00 2.6223929999999999e+01 4.3955200000000003e+00 4.7852499999999996e+00 0 0 0
2248 444 4 0.0000000000000000e+00 2.2840199999999999e+01 7.3258700000000001e+00 0.0000000000000000e+00 0 0 0
2252 444 4 0.0000000000000000e+00 2.4532070000000001e+01 7.3258700000000001e+00 2.3925000000000001e+00 0 0 0
2253 444 4 0.0000000000000000e+00 2.3686129999999999e+01 5.8606999999999996e+00 4.7852499999999996e+00 0 0 0
2261 444 4 0.0000000000000000e+00 2.3686129999999999e+01 8.7910500000000003e+00 4.7852499999999996e+00 0 0 0
2263 444 4 0.0000000000000000e+00 2.5378000000000000e+01 5.8606999999999996e+00 0.0000000000000000e+00 0 0 0
2264 444 4 0.0000000000000000e+00 2.7915800000000001e+01 7.3258700000000001e+00 0.0000000000000000e+00 0 0 0
2266 444 4 -6.2500000000000000e-02 2.7914719999999999e+01 7.3201700000000001e+00 7.2366200000000003e+00 0 0 0
2267 444 4 0.0000000000000000e+00 2.7069870000000002e+01 5.8606999999999996e+00 2.3925000000000001e+00 0 0 0
2268 444 4 0.0000000000000000e+00 2.9607669999999999e+01 7.3258700000000001e+00 2.3925000000000001e+00 0 0 0
2269 444 4 0.0000000000000000e+00 2.8761730000000000e+01 5.8606999999999996e+00 4.7852499999999996e+00 0 0 0
2270 444 4 0.0000000000000000e+00 2.6223929999999999e+01 7.3258700000000001e+00 4.7852499999999996e+00 0 0 0
2271 444 4 0.0000000000000000e+00 2.5378000000000000e+01 8.7910500000000003e+00 0.0000000000000000e+00 0 0 0
2275 444 4 0.0000000000000000e+00 2.7069870000000002e+01 8.7910500000000003e+00 2.3925000000000001e+00 0 0 0
2277 444 4 0.0000000000000000e+00 2.8761730000000000e+01 8.7910500000000003e+00 4.7852499999999996e+00 0 0 0
1847 444 4 -6.2500000000000000e-02 5.0597700000000003e+00 1.1700920000000000e+01 7.1591800000000001e+00 0 0 0
1854 444 4 0.0000000000000000e+00 2.5377999999999998e+00 1.0256220000000001e+01 0.0000000000000000e+00 0 0 0
1855 444 4 -6.2500000000000000e-02 4.7999999999999996e-03 8.7952300000000001e+00 7.1618100000000000e+00 0 0 0
1856 444 4 -6.2500000000000000e-02 2.5282800000000001e+00 1.0244000000000000e+01 7.1607099999999999e+00 0 0 0
1858 444 4 0.0000000000000000e+00 4.2296699999999996e+00 1.0256220000000001e+01 2.3925000000000001e+00 0 0 0
1860 444 4 0.0000000000000000e+00 8.4592999999999996e-01 1.0256220000000001e+01 4.7852499999999996e+00 0 0 0
1871 444 4 -6.2500000000000000e-02 5.0804000000000000e+00 8.7952300000000001e+00 7.1618100000000000e+00 0 0 0
1872 444 4 -6.2500000000000000e-02 7.6038800000000002e+00 1.0244000000000000e+01 7.1607099999999999e+00 0 0 0
1876 444 4 0.0000000000000000e+00 5.9215299999999997e+00 1.0256220000000001e+01 4.7852499999999996e+00 0 0 0
1877 444 4 0.0000000000000000e+00 0.0000000000000000e+00 1.1721399999999999e+01 0.0000000000000000e+00 0 0 0
1878 444 4 0.0000000000000000e+00 2.5377999999999998e+00 1.3186570000000000e+01 0.0000000000000000e+00 0 0 0
1879 444 4 -6.2500000000000000e-02 5.0597700000000003e+00 1.7561620000000001e+01 7.1591800000000001e+00 0 0 0
1880 444 4 -6.2500000000000000e-02 2.5367199999999999e+00 1.3180870000000001e+01 7.2366200000000003e+00 0 0 0
1881 444 4 0.0000000000000000e+00 1.6918700000000000e+00 1.1721399999999999e+01 2.3925000000000001e+00 0 0 0
1882 444 4 0.0000000000000000e+00 4.2296699999999996e+00 1.3186570000000000e+01 2.3925000000000001e+00 0 0 0
1883 444 4 0.0000000000000000e+00 3.3837299999999999e+00 1.1721399999999999e+01 4.7852499999999996e+00 0 0 0
1884 444 4 0.0000000000000000e+00 8.4592999999999996e-01 1.3186570000000000e+01 4.7852499999999996e+00 0 0 0
1885 444 4 0.0000000000000000e+00 0.0000000000000000e+00 1.4651750000000000e+01 0.0000000000000000e+00 0 0 0
1886 444 4 0.0000000000000000e+00 2.5377999999999998e+00 1.6116920000000000e+01 0.0000000000000000e+00 0 0 0
1887 444 4 -6.2500000000000000e-02 4.7999999999999996e-03 1.4655930000000000e+01 7.1618100000000000e+00 0 0 0
1888 444 4 -6.2500000000000000e-02 2.5282800000000001e+00 1.6104700000000001e+01 7.1607099999999999e+00 0 0 0
1889 444 4 0.0000000000000000e+00 1.6918700000000000e+00 1.4651750000000000e+01 2.3925000000000001e+00 0 0 0
1890 444 4 0.0000000000000000e+00 4.2296699999999996e+00 1.6116920000000000e+01 2.3925000000000001e+00 0 0 0
1891 444 4 0.0000000000000000e+00 3.3837299999999999e+00 1.4651750000000000e+01 4.7852499999999996e+00 0 0 0
1892 444 4 0.0000000000000000e+00 8.4592999999999996e-01 1.6116920000000000e+01 4.7852499999999996e+00 0 0 0
1896 444 4 0.0000000000000000e+00 5.0755999999999997e+00 1.1721399999999999e+01 0.0000000000000000e+00 0 0 0
1899 444 4 -6.2500000000000000e-02 7.6123200000000004e+00 1.3180870000000001e+01 7.2366200000000003e+00 0 0 0
1900 444 4 0.0000000000000000e+00 6.7674700000000003e+00 1.1721399999999999e+01 2.3925000000000001e+00 0 0 0
1903 444 4 0.0000000000000000e+00 5.9215299999999997e+00 1.3186570000000000e+01 4.7852499999999996e+00 0 0 0
1904 444 4 0.0000000000000000e+00 5.0755999999999997e+00 1.4651750000000000e+01 0.0000000000000000e+00 0 0 0
1906 444 4 -6.2500000000000000e-02 5.0804000000000000e+00 1.4655930000000000e+01 7.1618100000000000e+00 0 0 0
1907 444 4 -6.2500000000000000e-02 7.6038800000000002e+00 1.6104700000000001e+01 7.1607099999999999e+00 0 0 0
1908 444 4 0.0000000000000000e+00 6.7674700000000003e+00 1.4651750000000000e+01 2.3925000000000001e+00 0 0 0
1911 444 4 0.0000000000000000e+00 5.9215299999999997e+00 1.6116920000000000e+01 4.7852499999999996e+00 0 0 0
1912 444 4 0.0000000000000000e+00 0.0000000000000000e+00 1.7582100000000001e+01 0.0000000000000000e+00 0 0 0
1916 444 4 0.0000000000000000e+00 1.6918700000000000e+00 1.7582100000000001e+01 2.3925000000000001e+00 0 0 0
1918 444 4 0.0000000000000000e+00 3.3837299999999999e+00 1.7582100000000001e+01 4.7852499999999996e+00 0 0 0
1928 444 4 0.0000000000000000e+00 5.0755999999999997e+00 1.7582100000000001e+01 0.0000000000000000e+00 0 0 0
1932 444 4 0.0000000000000000e+00 6.7674700000000003e+00 1.7582100000000001e+01 2.3925000000000001e+00 0 0 0
1863 444 4 -6.2500000000000000e-02 1.0135370000000000e+01 1.1700920000000000e+01 7.1591800000000001e+00 0 0 0
1870 444 4 0.0000000000000000e+00 7.6134000000000004e+00 1.0256220000000001e+01 0.0000000000000000e+00 0 0 0
1874 444 4 0.0000000000000000e+00 9.3052700000000002e+00 1.0256220000000001e+01 2.3925000000000001e+00 0 0 0
1897 444 4 0.0000000000000000e+00 7.6134000000000004e+00 1.3186570000000000e+01 0.0000000000000000e+00 0 0 0
1898 444 4 -6.2500000000000000e-02 1.0135370000000000e+01 1.7561620000000001e+01 7.1591800000000001e+00 0 0 0
1901 444 4 0.0000000000000000e+00 9.3052700000000002e+00 1.3186570000000000e+01 2.3925000000000001e+00 0 0 0
1902 444 4 0.0000000000000000e+00 8.4593299999999996e+00 1.1721399999999999e+01 4.7852499999999996e+00 0 0 0
1905 444 4 0.0000000000000000e+00 7.6134000000000004e+00 1.6116920000000000e+01 0.0000000000000000e+00 0 0 0
1909 444 4 0.0000000000000000e+00 9.3052700000000002e+00 1.6116920000000000e+01 2.3925000000000001e+00 0 0 0
1910 444 4 0.0000000000000000e+00 8.4593299999999996e+00 1.4651750000000000e+01 4.7852499999999996e+00 0 0 0
1934 444 4 0.0000000000000000e+00 8.4593299999999996e+00 1.7582100000000001e+01 4.7852499999999996e+00 0 0 0
2048 444 4 -6.2500000000000000e-02 1.5210970000000000e+01 1.1700920000000000e+01 7.1591800000000001e+00 0 0 0
2055 444 4 0.0000000000000000e+00 1.2689000000000000e+01 1.0256220000000001e+01 0.0000000000000000e+00 0 0 0
2056 444 4 -6.2500000000000000e-02 1.0156000000000001e+01 8.7952300000000001e+00 7.1618100000000000e+00 0 0 0
2057 444 4 -6.2500000000000000e-02 1.2679480000000000e+01 1.0244000000000000e+01 7.1607099999999999e+00 0 0 0
2059 444 4 0.0000000000000000e+00 1.4380870000000000e+01 1.0256220000000001e+01 2.3925000000000001e+00 0 0 0
2061 444 4 0.0000000000000000e+00 1.0997130000000000e+01 1.0256220000000001e+01 4.7852499999999996e+00 0 0 0
2078 444 4 0.0000000000000000e+00 1.0151199999999999e+01 1.1721399999999999e+01 0.0000000000000000e+00 0 0 0
2079 444 4 0.0000000000000000e+00 1.2689000000000000e+01 1.3186570000000000e+01 0.0000000000000000e+00 0 0 0
2080 444 4 -6.2500000000000000e-02 1.5210970000000000e+01 1.7561620000000001e+01 7.1591800000000001e+00 0 0 0
2081 444 4 -6.2500000000000000e-02 1.2687920000000000e+01 1.3180870000000001e+01 7.2366200000000003e+00 0 0 0
2082 444 4 0.0000000000000000e+00 1.1843070000000001e+01 1.1721399999999999e+01 2.3925000000000001e+00 0 0 0
2083 444 4 0.0000000000000000e+00 1.4380870000000000e+01 1.3186570000000000e+01 2.3925000000000001e+00 0 0 0
2084 444 4 0.0000000000000000e+00 1.3534929999999999e+01 1.1721399999999999e+01 4.7852499999999996e+00 0 0 0
2085 444 4 0.0000000000000000e+00 1.0997130000000000e+01 1.3186570000000000e+01 4.7852499999999996e+00 0 0 0
2086 444 4 0.0000000000000000e+00 1.0151199999999999e+01 1.4651750000000000e+01 0.0000000000000000e+00 0 0 0
2087 444 4 0.0000000000000000e+00 1.2689000000000000e+01 1.6116920000000000e+01 0.0000000000000000e+00 0 0 0
2088 444 4 -6.2500000000000000e-02 1.0156000000000001e+01 1.4655930000000000e+01 7.1618100000000000e+00 0 0 0
2089 444 4 -6.2500000000000000e-02 1.2679480000000000e+01 1.6104700000000001e+01 7.1607099999999999e+00 0 0 0
2090 444 4 0.0000000000000000e+00 1.1843070000000001e+01 1.4651750000000000e+01 2.3925000000000001e+00 0 0 0
2091 444 4 0.0000000000000000e+00 1.4380870000000000e+01 1.6116920000000000e+01 2.3925000000000001e+00 0 0 0
2092 444 4 0.0000000000000000e+00 1.3534929999999999e+01 1.4651750000000000e+01 4.7852499999999996e+00 0 0 0
2093 444 4 0.0000000000000000e+00 1.0997130000000000e+01 1.6116920000000000e+01 4.7852499999999996e+00 0 0 0
2113 444 4 0.0000000000000000e+00 1.0151199999999999e+01 1.7582100000000001e+01 0.0000000000000000e+00 0 0 0
2117 444 4 0.0000000000000000e+00 1.1843070000000001e+01 1.7582100000000001e+01 2.3925000000000001e+00 0 0 0
2119 444 4 0.0000000000000000e+00 1.3534929999999999e+01 1.7582100000000001e+01 4.7852499999999996e+00 0 0 0
2064 444 4 -6.2500000000000000e-02 2.0286570000000001e+01 1.1700920000000000e+01 7.1591800000000001e+00 0 0 0
2071 444 4 0.0000000000000000e+00 1.7764600000000002e+01 1.0256220000000001e+01 0.0000000000000000e+00 0 0 0
2072 444 4 -6.2500000000000000e-02 1.5231600000000000e+01 8.7952300000000001e+00 7.1618100000000000e+00 0 0 0
2073 444 4 -6.2500000000000000e-02 1.7755080000000000e+01 1.0244000000000000e+01 7.1607099999999999e+00 0 0 0
2075 444 4 0.0000000000000000e+00 1.9456469999999999e+01 1.0256220000000001e+01 2.3925000000000001e+00 0 0 0
2077 444 4 0.0000000000000000e+00 1.6072730000000000e+01 1.0256220000000001e+01 4.7852499999999996e+00 0 0 0
2097 444 4 0.0000000000000000e+00 1.5226800000000001e+01 1.1721399999999999e+01 0.0000000000000000e+00 0 0 0
2098 444 4 0.0000000000000000e+00 1.7764600000000002e+01 1.3186570000000000e+01 0.0000000000000000e+00 0 0 0
2099 444 4 -6.2500000000000000e-02 2.0286570000000001e+01 1.7561620000000001e+01 7.1591800000000001e+00 0 0 0
2100 444 4 -6.2500000000000000e-02 1.7763520000000000e+01 1.3180870000000001e+01 7.2366200000000003e+00 0 0 0
2101 444 4 0.0000000000000000e+00 1.6918669999999999e+01 1.1721399999999999e+01 2.3925000000000001e+00 0 0 0
2102 444 4 0.0000000000000000e+00 1.9456469999999999e+01 1.3186570000000000e+01 2.3925000000000001e+00 0 0 0
2103 444 4 0.0000000000000000e+00 1.8610530000000001e+01 1.1721399999999999e+01 4.7852499999999996e+00 0 0 0
2104 444 4 0.0000000000000000e+00 1.6072730000000000e+01 1.3186570000000000e+01 4.7852499999999996e+00 0 0 0
2105 444 4 0.0000000000000000e+00 1.5226800000000001e+01 1.4651750000000000e+01 0.0000000000000000e+00 0 0 0
2106 444 4 0.0000000000000000e+00 1.7764600000000002e+01 1.6116920000000000e+01 0.0000000000000000e+00 0 0 0
2107 444 4 -6.2500000000000000e-02 1.5231600000000000e+01 1.4655930000000000e+01 7.1618100000000000e+00 0 0 0
2108 444 4 -6.2500000000000000e-02 1.7755080000000000e+01 1.6104700000000001e+01 7.1607099999999999e+00 0 0 0
2109 444 4 0.0000000000000000e+00 1.6918669999999999e+01 1.4651750000000000e+01 2.3925000000000001e+00 0 0 0
2110 444 4 0.0000000000000000e+00 1.9456469999999999e+01 1.6116920000000000e+01 2.3925000000000001e+00 0 0 0
2111 444 4 0.0000000000000000e+00 1.8610530000000001e+01 1.4651750000000000e+01 4.7852499999999996e+00 0 0 0
2112 444 4 0.0000000000000000e+00 1.6072730000000000e+01 1.6116920000000000e+01 4.7852499999999996e+00 0 0 0
2129 444 4 0.0000000000000000e+00 1.5226800000000001e+01 1.7582100000000001e+01 0.0000000000000000e+00 0 0 0
2133 444 4 0.0000000000000000e+00 1.6918669999999999e+01 1.7582100000000001e+01 2.3925000000000001e+00 0 0 0
2135 444 4 0.0000000000000000e+00 1.8610530000000001e+01 1.7582100000000001e+01 4.7852499999999996e+00 0 0 0
2257 444 4 -6.2500000000000000e-02 2.0307200000000002e+01 8.7952300000000001e+00 7.1618100000000000e+00 0 0 0
2258 444 4 -6.2500000000000000e-02 2.2830680000000001e+01 1.0244000000000000e+01 7.1607099999999999e+00 0 0 0
2262 444 4 0.0000000000000000e+00 2.1148330000000001e+01 1.0256220000000001e+01 4.7852499999999996e+00 0 0 0
2279 444 4 0.0000000000000000e+00 2.0302399999999999e+01 1.1721399999999999e+01 0.0000000000000000e+00 0 0 0
2282 444 4 -6.2500000000000000e-02 2.2839120000000001e+01 1.3180870000000001e+01 7.2366200000000003e+00 0 0 0
2283 444 4 0.0000000000000000e+00 2.1994270000000000e+01 1.1721399999999999e+01 2.3925000000000001e+00 0 0 0
2286 444 4 0.0000000000000000e+00 2.1148330000000001e+01 1.3186570000000000e+01 4.7852499999999996e+00 0 0 0
2287 444 4 0.0000000000000000e+00 2.0302399999999999e+01 1.4651750000000000e+01 0.0000000000000000e+00 0 0 0
2289 444 4 -6.2500000000000000e-02 2.0307200000000002e+01 1.4655930000000000e+01 7.1618100000000000e+00 0 0 0
2290 444 4 -6.2500000000000000e-02 2.2830680000000001e+01 1.6104700000000001e+01 7.1607099999999999e+00 0 0 0
2291 444 4 0.0000000000000000e+00 2.1994270000000000e+01 1.4651750000000000e+01 2.3925000000000001e+00 0 0 0
2294 444 4 0.0000000000000000e+00 2.1148330000000001e+01 1.6116920000000000e+01 4.7852499999999996e+00 0 0 0
2314 444 4 0.0000000000000000e+00 2.0302399999999999e+01 1.7582100000000001e+01 0.0000000000000000e+00 0 0 0
2318 444 4 0.0000000000000000e+00 2.1994270000000000e+01 1.7582100000000001e+01 2.3925000000000001e+00 0 0 0