LAMMPS data file via write_data, version 11 Aug 2017, timestep = 5000000

8016 atoms
7 atom types
4960 bonds
5 bond types
3560 angles
3 angle types
1800 dihedrals
2 dihedral types

0.0000000000000000e+00 4.5679949999999998e+01 xlo xhi
0.0000000000000000e+00 4.6885919999999999e+01 ylo yhi
0.0000000000000000e+00 6.5000000000000000e+01 zlo zhi

Masses

1 1.0079
2 15.9994
3 22.9898
4 15.9994
5 12.011
6 1.0079
7 107.868

Angle Coeffs # harmonic

1 50 109.471
2 50 104.51
3 55 104.52

Dihedral Coeffs # charmm

1 0.111111 3 0 0
2 0.333333 3 0 0

Atoms # full

6865 444 7 0.0000000000000000e+00 1.6907200000000000e+00 0.0000000000000000e+00 0.0000000000000000e+00 0 0 0
6866 444 7 0.0000000000000000e+00 4.2285000000000004e+00 1.4651900000000000e+00 0.0000000000000000e+00 0 0 0
6867 444 7 -8.3330000000000001e-02 1.6907700000000001e+00 0.0000000000000000e+00 7.1781499999999996e+00 0 0 0
6868 444 7 -8.3330000000000001e-02 4.2285500000000003e+00 1.4651900000000000e+00 7.1781499999999996e+00 0 0 0
6869 444 7 0.0000000000000000e+00 2.5366499999999998e+00 1.4651900000000000e+00 2.3926400000000001e+00 0 0 0
6870 444 7 0.0000000000000000e+00 5.0744199999999999e+00 0.0000000000000000e+00 2.3926400000000001e+00 0 0 0
6871 444 7 0.0000000000000000e+00 8.4509000000000001e-01 1.4651900000000000e+00 4.7824200000000001e+00 0 0 0
6872 444 7 0.0000000000000000e+00 3.3828600000000000e+00 0.0000000000000000e+00 4.7824499999999999e+00 0 0 0
6873 444 7 0.0000000000000000e+00 1.6907200000000000e+00 2.9303699999999999e+00 0.0000000000000000e+00 0 0 0
6874 444 7 0.0000000000000000e+00 4.2285000000000004e+00 4.3955599999999997e+00 0.0000000000000000e+00 0 0 0
6875 444 7 -8.3330000000000001e-02 1.6907700000000001e+00 2.9303699999999999e+00 7.1781899999999998e+00 0 0 0
6876 444 7 -8.3330000000000001e-02 4.2285500000000003e+00 4.3955599999999997e+00 7.1781600000000001e+00 0 0 0
6877 444 7 0.0000000000000000e+00 2.5366499999999998e+00 4.3955599999999997e+00 2.3926400000000001e+00 0 0 0
6878 444 7 0.0000000000000000e+00 5.0744199999999999e+00 2.9303699999999999e+00 2.3926400000000001e+00 0 0 0
6879 444 7 0.0000000000000000e+00 8.4509000000000001e-01 4.3955599999999997e+00 4.7824499999999999e+00 0 0 0
6880 444 7 0.0000000000000000e+00 3.3828700000000000e+00 2.9303699999999999e+00 4.7824400000000002e+00 0 0 0
6881 444 7 0.0000000000000000e+00 1.6907200000000000e+00 5.8607399999999998e+00 0.0000000000000000e+00 0 0 0
6882 444 7 0.0000000000000000e+00 4.2285000000000004e+00 7.3259299999999996e+00 0.0000000000000000e+00 0 0 0
6883 444 7 -8.3330000000000001e-02 1.6907700000000001e+00 5.8607399999999998e+00 7.1781499999999996e+00 0 0 0
6884 444 7 -8.3330000000000001e-02 4.2285500000000003e+00 7.3259299999999996e+00 7.1781499999999996e+00 0 0 0
6885 444 7 0.0000000000000000e+00 2.5366499999999998e+00 7.3259299999999996e+00 2.3926400000000001e+00 0 0 0
6886 444 7 0.0000000000000000e+00 5.0744199999999999e+00 5.8607399999999998e+00 2.3926400000000001e+00 0 0 0
6887 444 7 0.0000000000000000e+00 8.4509000000000001e-01 7.3259299999999996e+00 4.7824200000000001e+00 0 0 0
6888 444 7 0.0000000000000000e+00 3.3828600000000000e+00 5.8607399999999998e+00 4.7824499999999999e+00 0 0 0
6889 444 7 0.0000000000000000e+00 1.6907200000000000e+00 8.7911099999999998e+00 0.0000000000000000e+00 0 0 0
6891 444 7 -8.3330000000000001e-02 1.6907700000000001e+00 8.7911099999999998e+00 7.1781899999999998e+00 0 0 0
6894 444 7 0.0000000000000000e+00 5.0744199999999999e+00 8.7911099999999998e+00 2.3926400000000001e+00 0 0 0
6896 444 7 0.0000000000000000e+00 3.3828700000000000e+00 8.7911099999999998e+00 4.7824400000000002e+00 0 0 0
6993 444 7 0.0000000000000000e+00 6.7662699999999996e+00 0.0000000000000000e+00 0.0000000000000000e+00 0 0 0
6994 444 7 0.0000000000000000e+00 9.3040500000000002e+00 1.4651900000000000e+00 0.0000000000000000e+00 0 0 0
6995 444 7 -8.3330000000000001e-02 6.7663200000000003e+00 0.0000000000000000e+00 7.1781499999999996e+00 0 0 0
6996 444 7 -8.3330000000000001e-02 9.3041000000000000e+00 1.4651900000000000e+00 7.1781499999999996e+00 0 0 0
6997 444 7 0.0000000000000000e+00 7.6121999999999996e+00 1.4651900000000000e+00 2.3926400000000001e+00 0 0 0
6998 444 7 0.0000000000000000e+00 1.0149970000000000e+01 0.0000000000000000e+00 2.3926400000000001e+00 0 0 0
6999 444 7 0.0000000000000000e+00 5.9206399999999997e+00 1.4651900000000000e+00 4.7824200000000001e+00 0 0 0
7000 444 7 0.0000000000000000e+00 8.4584100000000007e+00 0.0000000000000000e+00 4.7824499999999999e+00 0 0 0
7001 444 7 0.0000000000000000e+00 6.7662699999999996e+00 2.9303699999999999e+00 0.0000000000000000e+00 0 0 0
7002 444 7 0.0000000000000000e+00 9.3040500000000002e+00 4.3955599999999997e+00 0.0000000000000000e+00 0 0 0
7003 444 7 -8.3330000000000001e-02 6.7663200000000003e+00 2.9303699999999999e+00 7.1781899999999998e+00 0 0 0
7004 444 7 -8.3330000000000001e-02 9.3041000000000000e+00 4.3955599999999997e+00 7.1781600000000001e+00 0 0 0
7005 444 7 0.0000000000000000e+00 7.6121999999999996e+00 4.3955599999999997e+00 2.3926400000000001e+00 0 0 0
7006 444 7 0.0000000000000000e+00 1.0149970000000000e+01 2.9303699999999999e+00 2.3926400000000001e+00 0 0 0
7007 444 7 0.0000000000000000e+00 5.9206399999999997e+00 4.3955599999999997e+00 4.7824499999999999e+00 0 0 0
7008 444 7 0.0000000000000000e+00 8.4584200000000003e+00 2.9303699999999999e+00 4.7824400000000002e+00 0 0 0
7127 444 7 0.0000000000000000e+00 1.0996190000000000e+01 1.4651900000000000e+00 4.7824200000000001e+00 0 0 0
7135 444 7 0.0000000000000000e+00 1.0996190000000000e+01 4.3955599999999997e+00 4.7824499999999999e+00 0 0 0
7009 444 7 0.0000000000000000e+00 6.7662699999999996e+00 5.8607399999999998e+00 0.0000000000000000e+00 0 0 0
7010 444 7 0.0000000000000000e+00 9.3040500000000002e+00 7.3259299999999996e+00 0.0000000000000000e+00 0 0 0
7011 444 7 -8.3330000000000001e-02 6.7663200000000003e+00 5.8607399999999998e+00 7.1781499999999996e+00 0 0 0
7012 444 7 -8.3330000000000001e-02 9.3041000000000000e+00 7.3259299999999996e+00 7.1781499999999996e+00 0 0 0
7013 444 7 0.0000000000000000e+00 7.6121999999999996e+00 7.3259299999999996e+00 2.3926400000000001e+00 0 0 0
7014 444 7 0.0000000000000000e+00 1.0149970000000000e+01 5.8607399999999998e+00 2.3926400000000001e+00 0 0 0
7015 444 7 0.0000000000000000e+00 5.9206399999999997e+00 7.3259299999999996e+00 4.7824200000000001e+00 0 0 0
7016 444 7 0.0000000000000000e+00 8.4584100000000007e+00 5.8607399999999998e+00 4.7824499999999999e+00 0 0 0
7143 444 7 0.0000000000000000e+00 1.0996190000000000e+01 7.3259299999999996e+00 4.7824200000000001e+00 0 0 0
7017 444 7 0.0000000000000000e+00 6.7662699999999996e+00 8.7911099999999998e+00 0.0000000000000000e+00 0 0 0
7019 444 7 -8.3330000000000001e-02 6.7663200000000003e+00 8.7911099999999998e+00 7.1781899999999998e+00 0 0 0
7022 444 7 0.0000000000000000e+00 1.0149970000000000e+01 8.7911099999999998e+00 2.3926400000000001e+00 0 0 0
7024 444 7 0.0000000000000000e+00 8.4584200000000003e+00 8.7911099999999998e+00 4.7824400000000002e+00 0 0 0
6051 444 1 4.1499999999999998e-01 6.2924635159359088e+00 1.3813311276869784e+00 1.1020689464160327e+01 3 -4 0
6049 444 2 -8.2999999999999996e-01 7.2430349324051360e+00 1.3849196345435217e+00 1.0908292972301268e+01 3 -4 0
5835 444 1 4.1499999999999998e-01 4.4438130770767366e+00 5.4406985270154298e+00 1.4179220186295153e+01 1 2 0
5833 444 2 -8.2999999999999996e-01 4.4612467055642249e+00 6.1077802160578276e+00 1.4865463567263715e+01 1 2 0
479 444 5 1.4000000000000001e-01 7.7489397202411614e-01 3.0218158251107261e+00 1.3905393666318425e+01 2 2 0
5067 444 1 4.1499999999999998e-01 5.1050839493796483e+00 4.0342636967986945e+00 1.2959783941990116e+01 -1 5 0
494 444 6 2.9999999999999999e-02 1.3345655252695650e+00 2.3766411391082665e+00 1.4619943729414766e+01 2 2 0
481 444 5 1.4000000000000001e-01 1.2713955963165624e+00 2.6399714398942971e+00 1.2506537052899294e+01 2 2 0
495 444 6 2.9999999999999999e-02 9.5565575432508609e-01 4.0915325852297642e+00 1.4144985905678521e+01 2 2 0
5065 444 2 -8.2999999999999996e-01 4.1623493524583255e+00 4.1994090797140968e+00 1.2945280406446782e+01 -1 5 0
5066 444 1 4.1499999999999998e-01 3.8907024141658724e+00 3.9618391580337380e+00 1.2058713796540363e+01 -1 5 0
271 444 6 2.9999999999999999e-02 7.3520517582962936e+00 1.7234529324978078e+00 1.4425202134087812e+01 0 3 0
4571 444 1 4.1499999999999998e-01 3.8620083245649650e+00 1.9115225946156911e+00 1.0440078102899530e+01 0 -2 0
498 444 6 2.9999999999999999e-02 9.6568513992320248e-01 3.4778292437660405e+00 1.1876328913183567e+01 2 2 0
4186 444 2 -8.2999999999999996e-01 6.8458424131789819e+00 4.0523163800939050e+00 1.2482478920131507e+01 -4 0 0
4187 444 1 4.1499999999999998e-01 6.6003468515229935e+00 4.6818575226303407e+00 1.1804510036709550e+01 -4 0 0
4188 444 1 4.1499999999999998e-01 7.4908390986832529e+00 3.4846430722360120e+00 1.2060628034871076e+01 -4 0 0
4993 444 2 -8.2999999999999996e-01 9.3224471292381690e+00 7.3379333651817102e+00 1.0696405714490879e+01 2 -4 0
2248 444 2 -8.2999999999999996e-01 7.5023269538292103e+00 7.9084766485984863e+00 1.2686369437858744e+01 0 3 0
6533 444 1 4.1499999999999998e-01 5.7549531858427372e-02 8.7319068948613570e+00 1.2960945696846096e+01 2 5 0
499 444 6 2.9999999999999999e-02 2.3675876252559007e+00 2.5447361073973189e+00 1.2431667304483575e+01 2 2 0
2160 444 1 4.1499999999999998e-01 6.4692301397999747e+00 5.0665585521750787e+00 9.6279844068295741e+00 1 4 0
4854 444 1 4.1499999999999998e-01 2.2058431448978877e+00 6.8890882713096593e+00 1.1834544645724177e+01 -1 -2 0
4852 444 2 -8.2999999999999996e-01 1.9005366243504240e+00 6.0179164946633454e+00 1.2087686071711964e+01 -1 -2 0
4853 444 1 4.1499999999999998e-01 2.6968443361530730e+00 5.4888558117537425e+00 1.2134815194020453e+01 -1 -2 0
2158 444 2 -8.2999999999999996e-01 5.9459266886370896e+00 5.3123656790880576e+00 1.0390850328626346e+01 1 4 0
4995 444 1 4.1499999999999998e-01 9.0061280166848530e+00 7.2791273902441525e+00 9.7948980155693359e+00 2 -4 0
483 444 5 1.4000000000000001e-01 9.3557274679132529e-01 6.8854862019838436e-01 1.0910676578833886e+01 2 2 0
2159 444 1 4.1499999999999998e-01 6.0847080255522430e+00 6.2549121657518043e+00 1.0483469209276064e+01 1 4 0
3895 444 2 -8.2999999999999996e-01 9.4568665823443219e+00 4.4047631900236189e-01 1.2602340288069639e+01 -2 -1 0
4994 444 1 4.1499999999999998e-01 9.8134434991168398e+00 6.5274873117079659e+00 1.0831804274948015e+01 2 -4 0
473 444 4 -4.0000000000000002e-01 6.5655731562259101e-01 1.3233030723794936e+00 1.2220339884414830e+01 2 2 0
3912 444 1 4.1499999999999998e-01 4.2728798709391773e+00 4.4288887105847019e+00 1.0245315200005775e+01 2 -4 0
3896 444 1 4.1499999999999998e-01 8.9095530827091203e+00 8.5419289071222448e-01 1.1934868619883929e+01 -2 -1 0
3911 444 1 4.1499999999999998e-01 2.9580360357450499e+00 4.0527205333266059e+00 9.5960241846733236e+00 2 -4 0
3910 444 2 -8.2999999999999996e-01 3.4298987284547646e+00 4.0138369798322557e+00 1.0427929104335604e+01 2 -4 0
2250 444 1 4.1499999999999998e-01 8.1846519328722209e+00 7.7193903569992699e+00 1.2042233678192147e+01 0 3 0
1183 444 2 -8.2999999999999996e-01 1.1242879710021107e+01 5.5259230401120378e+00 1.0542725173958358e+01 1 2 0
269 444 6 2.9999999999999999e-02 4.5115542914093263e+00 1.7119184312786657e+00 1.4333548239587611e+01 0 3 0
253 444 4 -4.0000000000000002e-01 5.9071109406118101e+00 3.4736418779296074e-01 1.5011583604477750e+01 0 3 0
2249 444 1 4.1499999999999998e-01 6.7107159197237971e+00 8.0423424792028317e+00 1.2165155633285703e+01 0 3 0
5631 444 1 4.1499999999999998e-01 7.0622221560583727e+00 7.6393820113646811e+00 1.4215274796259351e+01 -2 -3 0
5630 444 1 4.1499999999999998e-01 5.7497735128815775e+00 7.3847027336500641e+00 1.4925565047513944e+01 -2 -3 0
259 444 5 1.4000000000000001e-01 6.8873494239728705e+00 1.3201270455081151e+00 1.5355020358050821e+01 0 3 0
5629 444 2 -8.2999999999999996e-01 6.6877084767066073e+00 7.4919050664758657e+00 1.5083734320576015e+01 -2 -3 0
998 444 1 4.1499999999999998e-01 7.0015115553931917e+00 5.7549209750037349e+00 1.4896187671711402e+01 0 3 0
997 444 2 -8.2999999999999996e-01 7.1344909812470743e+00 4.8206043851891511e+00 1.5056192582621806e+01 0 3 0
999 444 1 4.1499999999999998e-01 7.1750011613025704e+00 4.4309402303504406e+00 1.4182834962195876e+01 0 3 0
258 444 5 1.4000000000000001e-01 5.1280827397728901e+00 8.3360843016354103e-01 1.3974099113543337e+01 0 3 0
268 444 6 2.9999999999999999e-02 5.6389485386187470e+00 1.0727917444805830e+00 1.3039902264566017e+01 0 3 0
272 444 6 2.9999999999999999e-02 3.2890147207200786e+00 2.4768178371863719e-01 1.3157842502263390e+01 0 3 0
6248 444 1 4.1499999999999998e-01 1.0418107920822893e+01 1.7570281305740931e+00 1.3420803020346748e+01 2 1 0
4572 444 1 4.1499999999999998e-01 4.5517303061071965e+00 7.5128273091185471e-01 9.7544963793894777e+00 0 -2 0
6342 444 1 4.1499999999999998e-01 2.9598975986092388e+00 7.7334731426385908e+00 9.7640730498035477e+00 -1 0 0
5834 444 1 4.1499999999999998e-01 3.6009486531126846e+00 6.0473949229931216e+00 1.5280761954739033e+01 1 2 0
503 444 6 2.9999999999999999e-02 6.8995118386530641e-01 1.4053458740300036e+00 1.0183995026297255e+01 2 2 0
865 444 2 -8.2999999999999996e-01 5.4596700972761276e+00 8.0412528014603524e+00 1.1230051453646714e+01 1 2 0
5438 444 1 4.1499999999999998e-01 9.9226794776550040e+00 2.4527787580291709e+00 9.3989897790941370e+00 1 -3 0
4570 444 2 -8.2999999999999996e-01 4.6206858872389693e+00 1.3323309177696347e+00 1.0512031894392109e+01 0 -2 0
5439 444 1 4.1499999999999998e-01 1.0588355002888155e+01 3.6708153879735854e+00 1.0003273212335142e+01 1 -3 0
6740 444 1 4.1499999999999998e-01 2.7150801962152982e-01 5.1929991421677020e+00 1.1062963943418541e+01 -4 1 0
354 444 6 2.9999999999999999e-02 4.0137138545186355e+00 9.2631503824821984e+00 1.3501521989442674e+01 -2 0 0
5437 444 2 -8.2999999999999996e-01 1.0535622433694432e+01 2.7185258037547766e+00 1.0084490632182767e+01 1 -3 0
6050 444 1 4.1499999999999998e-01 7.3733592042304341e+00 1.5312032947533456e+00 9.9713572274197002e+00 3 -4 0
274 444 6 2.9999999999999999e-02 9.0152814769296636e+00 7.4727846678634446e-01 1.5719836198677736e+01 0 3 0
270 444 6 2.9999999999999999e-02 6.5867248866180423e+00 2.1801860754886140e+00 1.5910192803285446e+01 0 3 0
1921 444 2 -8.2999999999999996e-01 2.0554237472316861e+00 5.6844669074321201e+00 1.6238118735684342e+01 -2 -2 0
261 444 5 1.4000000000000001e-01 7.9845678172372283e+00 6.1693543013254926e-01 1.6164752663310924e+01 0 3 0
5579 444 1 4.1499999999999998e-01 2.4215291788303420e-01 6.6380402426989509e+00 1.2594013117372548e+01 -6 2 0
867 444 1 4.1499999999999998e-01 4.5226673278527123e+00 7.9961143837861020e+00 1.1039734174711121e+01 1 2 0
339 444 5 1.4000000000000001e-01 2.4010817268625626e+00 9.0908459767731689e+00 1.5582167234936270e+01 -2 0 0
1358 444 1 4.1499999999999998e-01 9.8104648317210987e+00 7.1100420480376991e+00 1.5793787803828973e+01 7 1 0
359 444 6 2.9999999999999999e-02 2.2114002149769640e+00 8.2200989452437518e+00 1.4833607324519141e+01 -2 0 0
6340 444 2 -8.2999999999999996e-01 2.7557584607384622e+00 8.1279517565799377e+00 1.0611979862772271e+01 -1 0 0
866 444 1 4.1499999999999998e-01 5.7449070213105538e+00 8.8661504813751026e+00 1.0837092825265117e+01 1 2 0
1923 444 1 4.1499999999999998e-01 1.3495021499584632e+00 5.1090393874960460e+00 1.5943517211633871e+01 -2 -2 0
2907 444 1 4.1499999999999998e-01 1.1172374286535263e+01 8.7520107867650090e+00 1.2923326853733704e+01 0 -2 0
502 444 6 2.9999999999999999e-02 1.9959509589502382e+00 3.4599660990671843e-01 1.0901306101656072e+01 2 2 0
6247 444 2 -8.2999999999999996e-01 1.1157921565378494e+01 2.2190029211866422e+00 1.3815121476988764e+01 2 1 0
356 444 6 2.9999999999999999e-02 3.8260670386900930e-01 8.5658146764674665e+00 1.5799560886063578e+01 -2 0 0
6341 444 1 4.1499999999999998e-01 2.8522252748366639e+00 9.0693545731430252e+00 1.0468148913577160e+01 -1 0 0
2638 444 2 -8.2999999999999996e-01 3.6558832933864488e-01 6.9759428910588230e+00 1.7972536495918831e+01 1 -4 0
569 444 6 2.9999999999999999e-02 4.8817724620528731e+00 7.3122754954313895e-01 1.8500389084732852e+01 -1 2 0
5961 444 1 4.1499999999999998e-01 1.0857693449148888e+01 4.1840040689433877e+00 1.6458209247373642e+01 3 -3 0
5692 444 2 -8.2999999999999996e-01 2.0904203300718308e-01 5.6517338752053181e+00 2.3238061217646628e+01 -1 1 0
1359 444 1 4.1499999999999998e-01 1.0587912249623814e+01 6.3851914436568329e+00 1.6871777800613327e+01 7 1 0
4882 444 2 -8.2999999999999996e-01 1.0343232682843855e+01 4.3193128606438402e-01 2.0767257146420686e+01 1 -1 0
3427 444 2 -8.2999999999999996e-01 8.3149492211536717e+00 7.6323032617241937e-01 2.2999900285025692e+01 -8 -1 0
565 444 6 2.9999999999999999e-02 2.6064170115809979e+00 8.6468644517263771e-01 1.9054669983575447e+01 -1 2 0
2476 444 2 -8.2999999999999996e-01 7.2827392843751566e+00 8.4676083803513418e+00 1.7545479195576075e+01 3 -2 0
5959 444 2 -8.2999999999999996e-01 1.0400531154744192e+01 4.4449633152791383e+00 1.7257668503384131e+01 3 -3 0
598 444 6 2.9999999999999999e-02 3.0612958389351457e+00 7.6004811886861807e+00 1.8992069229003576e+01 -1 1 0
2740 444 2 -8.2999999999999996e-01 1.1233007907335608e+01 2.1499300206889358e+00 1.8862564280103758e+01 11 1 0
599 444 6 2.9999999999999999e-02 4.6113956306306276e+00 7.7039530252395698e+00 1.8082973712245536e+01 -1 1 0
275 444 6 2.9999999999999999e-02 8.0856454784666649e+00 1.0303667488954600e+00 1.7186082597756350e+01 0 3 0
579 444 4 -4.0000000000000002e-01 4.4717479775055704e+00 6.3814126209015107e+00 1.9714687919119147e+01 -1 1 0
581 444 4 -4.0000000000000002e-01 6.2338282200932591e+00 4.3736186860829607e+00 2.0170386808443951e+01 -1 1 0
587 444 5 1.4000000000000001e-01 4.3955927804217003e+00 5.2387637878850484e+00 1.8841214589892036e+01 -1 1 0
585 444 5 1.4000000000000001e-01 4.0968025374600332e+00 7.5648050571770602e+00 1.9085421582819098e+01 -1 1 0
602 444 6 2.9999999999999999e-02 4.8432892829337471e+00 5.3248933477650207e+00 1.7855430182600784e+01 -1 1 0
612 444 3 1.0000000000000000e+00 6.8546548184496787e+00 6.7296999265682569e+00 1.9265566072751135e+01 -1 1 0
589 444 5 1.4000000000000001e-01 4.9559588732336115e+00 4.0675842967108631e+00 1.9595416667751909e+01 -1 1 0
606 444 6 2.9999999999999999e-02 4.3035264348007898e+00 3.9008269145532100e+00 2.0425508314064295e+01 -1 1 0
607 444 6 2.9999999999999999e-02 5.0566344796511666e+00 3.2062170983419058e+00 1.8923722938585403e+01 -1 1 0
591 444 5 1.4000000000000001e-01 6.9336905639671400e+00 3.3216767916177004e+00 2.0876108024209575e+01 -1 1 0
611 444 6 2.9999999999999999e-02 6.3636980451105973e+00 3.3321709089011158e+00 2.1778571941200383e+01 -1 1 0
610 444 6 2.9999999999999999e-02 6.9535738124737643e+00 2.3930705808581205e+00 2.0423751390248015e+01 -1 1 0
5414 444 1 4.1499999999999998e-01 7.4932340261443651e+00 4.9550879665214271e+00 1.6724988862051930e+01 -3 -1 0
5413 444 2 -8.2999999999999996e-01 7.8981316552412446e+00 5.0333369512663895e+00 1.7588798446430211e+01 -3 -1 0
583 444 5 1.4000000000000001e-01 4.3974510587551441e+00 8.6953527280824794e+00 2.0072782148932696e+01 -1 1 0
577 444 4 -4.0000000000000002e-01 5.6990303693362625e+00 8.3903486032136563e+00 2.0572850330623627e+01 -1 1 0
5415 444 1 4.1499999999999998e-01 8.8338753775279972e+00 4.9131827925067952e+00 1.7427000426202781e+01 -3 -1 0
603 444 6 2.9999999999999999e-02 3.3809977504638637e+00 4.9593607814421192e+00 1.8581134519335116e+01 -1 1 0
578 444 4 -4.0000000000000002e-01 7.7940543044706914e+00 7.9402329612470979e+00 2.1138125878289088e+01 -1 1 0
590 444 5 1.4000000000000001e-01 8.3159348486344040e+00 3.8864447179303716e+00 2.1064551014294281e+01 -1 1 0
580 444 4 -4.0000000000000002e-01 7.9493506928837858e+00 5.3012515928408543e+00 2.1204355659790238e+01 -1 1 0
601 444 6 2.9999999999999999e-02 9.8202757907441924e+00 7.9241156233941350e+00 2.1403998843917531e+01 -1 1 0
586 444 5 1.4000000000000001e-01 8.9587199655310741e+00 7.4112818897339494e+00 2.1704877650213380e+01 -1 1 0
588 444 5 1.4000000000000001e-01 9.1003299404703402e+00 6.1254558180574250e+00 2.0951248226831208e+01 -1 1 0
609 444 6 2.9999999999999999e-02 8.9043363605801851e+00 3.7429604036369941e+00 2.0172825566417970e+01 -1 1 0
604 444 6 2.9999999999999999e-02 9.2082194233564980e+00 6.3867794497447781e+00 1.9825489062510908e+01 -1 1 0
608 444 6 2.9999999999999999e-02 8.8535033630379640e+00 3.4493496786439697e+00 2.1960926459800643e+01 -1 1 0
605 444 6 2.9999999999999999e-02 1.0028595375491800e+01 5.6266131769299683e+00 2.1236391912266363e+01 -1 1 0
600 444 6 2.9999999999999999e-02 8.9250451164000157e+00 7.2630155684425297e+00 2.2768140008836550e+01 -1 1 0
5106 444 1 4.1499999999999998e-01 6.3106994331021067e+00 5.5408883568834737e+00 2.2312953745483931e+01 -3 4 0
5104 444 2 -8.2999999999999996e-01 5.7390816075705553e+00 6.2639821606916666e+00 2.2571063472602717e+01 -3 4 0
5105 444 1 4.1499999999999998e-01 5.9859120663189644e+00 6.9839792072058868e+00 2.1990622863799327e+01 -3 4 0
2742 444 1 4.1499999999999998e-01 1.0979583197995535e+01 1.4889031052858384e+00 1.9506809006924989e+01 11 1 0
2478 444 1 4.1499999999999998e-01 7.1560057359166249e+00 8.1560962910486410e+00 1.6649303534107464e+01 3 -2 0
6052 444 2 -8.2999999999999996e-01 1.0434605810577219e+01 8.8052851190516161e+00 1.9043260117089055e+01 0 -2 0
4945 444 2 -8.2999999999999996e-01 1.8925046561754071e+00 8.2563400494306656e+00 2.3910365906632990e+01 3 1 0
584 444 5 1.4000000000000001e-01 7.6284905870441406e+00 9.2551913864863575e+00 2.1690407253469306e+01 -1 1 0
5960 444 1 4.1499999999999998e-01 1.0549027668767602e+01 3.7211622608721555e+00 1.7866186018752302e+01 3 -3 0
4946 444 1 4.1499999999999998e-01 1.4599385776558411e+00 7.5080747723012413e+00 2.3499005021411961e+01 3 1 0
3429 444 1 4.1499999999999998e-01 8.8588010262332570e+00 1.5259601828760438e+00 2.3196624566188849e+01 -8 -1 0
595 444 6 2.9999999999999999e-02 3.6324972500873280e+00 8.6194326396160488e+00 2.0865233381911306e+01 -1 1 0
564 444 6 2.9999999999999999e-02 3.5342124035458089e+00 9.6457075921518165e-01 2.0588132800253799e+01 -1 2 0
2639 444 1 4.1499999999999998e-01 3.4346136544487937e-01 7.6347348582607930e+00 1.8666608124049734e+01 1 -4 0
358 444 6 2.9999999999999999e-02 3.0810040810157058e+00 8.7567001628172569e+00 1.6364932538532326e+01 -2 0 0
2741 444 1 4.1499999999999998e-01 1.1382041146396960e+01 1.6550718997542817e+00 1.8056874252036206e+01 11 1 0
4883 444 1 4.1499999999999998e-01 9.5413586944852700e+00 3.9186013461769981e-01 2.1288433096262423e+01 1 -1 0
5694 444 1 4.1499999999999998e-01 8.8660260273771063e-01 5.0113141127302381e+00 2.3454871352291583e+01 -1 1 0
6609 444 1 4.1499999999999998e-01 4.7456398983327261e+00 7.1784980032299899e+00 2.3533256560204574e+01 0 2 0
3082 444 2 -8.2999999999999996e-01 2.9769667914277829e+00 4.2111246924120627e+00 2.3005499397264586e+01 -2 -3 0
6607 444 2 -8.2999999999999996e-01 4.5625763512565163e+00 7.5987690270948249e+00 2.4373550488995033e+01 0 2 0
3083 444 1 4.1499999999999998e-01 3.5743825837796313e+00 4.4683283686056443e+00 2.2303236861144306e+01 -2 -3 0
3084 444 1 4.1499999999999998e-01 3.4441262467246547e+00 4.4324966504803758e+00 2.3811097804892000e+01 -2 -3 0
4681 444 2 -8.2999999999999996e-01 1.1321682086677333e+01 5.9730954408462757e+00 2.4087574387582091e+01 -5 0 0
1357 444 2 -8.2999999999999996e-01 1.0345663913939541e+01 7.2616291568005469e+00 1.6572771289023091e+01 7 1 0
550 444 5 1.4000000000000001e-01 3.1793036255955260e+00 3.0628075248869763e-01 1.9750355416425947e+01 -1 2 0
1922 444 1 4.1499999999999998e-01 1.6657514507924107e+00 6.2003201935124626e+00 1.6944011173402821e+01 -2 -2 0
6053 444 1 4.1499999999999998e-01 1.0252000237336651e+01 8.4498155362809708e+00 1.8173473221425311e+01 0 -2 0
4947 444 1 4.1499999999999998e-01 1.4859713494443083e+00 9.0217434327791164e+00 2.3504015220745408e+01 3 1 0
597 444 6 2.9999999999999999e-02 7.3677149077622071e+00 9.3266335727663936e+00 2.2761752265600503e+01 -1 1 0
561 444 6 2.9999999999999999e-02 1.8187059365104157e+00 3.1085941726232136e-02 2.1908465329923708e+01 -1 2 0
3428 444 1 4.1499999999999998e-01 8.7192216434660690e+00 4.7355909768150184e-02 2.3490125799285899e+01 -8 -1 0
4984 444 2 -8.2999999999999996e-01 1.0529227066879962e+01 9.0136130466563049e+00 2.7421515419212238e+01 5 -1 0
2606 444 1 4.1499999999999998e-01 1.1224836312510433e-01 4.9996805683859007e+00 2.9200999757432516e+01 5 -3 0
2343 444 1 4.1499999999999998e-01 7.2132182871951972e-02 2.4462212334064275e+00 3.0298655364647136e+01 3 2 0
4870 444 2 -8.2999999999999996e-01 1.9426364862784318e-01 7.6059732690506907e+00 2.6998452533496106e+01 0 0 0
6459 444 1 4.1499999999999998e-01 3.8221562797953106e+00 1.3695249453192602e+00 2.7086893915500490e+01 -2 5 0
2088 444 1 4.1499999999999998e-01 1.1007239057948425e+01 7.0525192193653172e+00 2.9494962342713237e+01 -3 1 0
6240 444 1 4.1499999999999998e-01 3.1967660878524300e+00 2.0328517126434158e+00 2.4566974715324967e+01 -3 -6 0
6238 444 2 -8.2999999999999996e-01 2.8838726752457533e+00 1.4740460853100512e+00 2.5278357931189138e+01 -3 -6 0
6239 444 1 4.1499999999999998e-01 1.9299402908751968e+00 1.5379950084114353e+00 2.5231929235215251e+01 -3 -6 0
2117 444 1 4.1499999999999998e-01 6.7835840004077177e+00 1.3300151947360463e+00 2.6749811980821612e+01 -3 1 0
2342 444 1 4.1499999999999998e-01 1.6910753481973018e-01 3.0105662309219006e+00 3.1700085259986615e+01 3 2 0
1924 444 2 -8.2999999999999996e-01 1.0717049279128380e+01 9.8287730183851185e-01 2.9172922923655317e+01 -7 -1 0
3418 444 2 -8.2999999999999996e-01 7.8291102812943310e+00 7.8632784620447005e+00 2.7027926075108155e+01 4 -3 0
4683 444 1 4.1499999999999998e-01 1.0612596019423064e+01 6.2668342717315104e+00 2.4659541461233307e+01 -5 0 0
6608 444 1 4.1499999999999998e-01 3.6079300035043684e+00 7.6591306916458111e+00 2.4408760188190822e+01 0 2 0
2769 444 1 4.1499999999999998e-01 5.9590600056751963e+00 5.2857710878022539e+00 2.5089852155834588e+01 2 -2 0
6670 444 2 -8.2999999999999996e-01 1.7873189061009724e+00 5.1481305863232683e+00 2.7941934554427295e+01 -3 4 0
5856 444 1 4.1499999999999998e-01 4.9453778383166762e+00 2.0326857771736115e+00 3.1986642728643886e+01 -2 4 0
1525 444 2 -8.2999999999999996e-01 9.2741783198171852e+00 7.6412481290476970e+00 3.0475892143312763e+01 1 1 0
2118 444 1 4.1499999999999998e-01 7.5399312251629036e+00 2.6395822570548879e+00 2.6680039614162411e+01 -3 1 0
3419 444 1 4.1499999999999998e-01 7.5998539067792130e+00 7.2442027658007762e+00 2.6334803260141534e+01 4 -3 0
1526 444 1 4.1499999999999998e-01 9.4111697910826848e+00 8.5782888147560339e+00 3.0336535996990147e+01 1 1 0
6672 444 1 4.1499999999999998e-01 2.2148850817414956e+00 5.5599633619879052e+00 2.8692809579762095e+01 -3 4 0
4234 444 2 -8.2999999999999996e-01 6.4188513053747958e+00 1.2804159505577495e+00 3.0983475773015901e+01 2 1 0
4235 444 1 4.1499999999999998e-01 7.1907235104553111e+00 1.0522276810056681e+00 3.1501525514810496e+01 2 1 0
4985 444 1 4.1499999999999998e-01 9.7373030458666907e+00 8.5803631522488608e+00 2.7103108828489283e+01 5 -1 0
2768 444 1 4.1499999999999998e-01 5.9316145208688331e+00 6.7697802169198278e+00 2.4791760140453682e+01 2 -2 0
1222 444 2 -8.2999999999999996e-01 6.5514279248768110e+00 4.2166108550131369e+00 3.1869507160931775e+01 -4 0 0
2116 444 2 -8.2999999999999996e-01 6.8017304365710851e+00 2.1701755604707946e+00 2.6291518254321474e+01 -3 1 0
6457 444 2 -8.2999999999999996e-01 4.1946439973831824e+00 1.0126248089073475e+00 2.7893186094101992e+01 -2 5 0
3803 444 1 4.1499999999999998e-01 8.4464184955354042e+00 5.5760324931472161e+00 2.5402889213819176e+01 6 0 0
2847 444 1 4.1499999999999998e-01 3.6857545738110811e+00 3.9125155338977766e+00 3.1594892380777772e+01 2 -4 0
3135 444 1 4.1499999999999998e-01 8.9131340672275723e+00 2.6717605622483327e+00 2.8761358059107362e+01 2 7 0
5015 444 1 4.1499999999999998e-01 1.4426257763461736e+00 8.7490380013080298e+00 2.9727020081530160e+01 0 -2 0
6508 444 2 -8.2999999999999996e-01 4.9392801418787347e+00 3.9307449478339236e+00 2.5144493362156560e+01 5 -4 0
5016 444 1 4.1499999999999998e-01 2.8010907458357748e+00 8.1845676575015762e+00 3.0084569411514799e+01 0 -2 0
6509 444 1 4.1499999999999998e-01 4.4674294798904715e+00 3.6989293040919331e+00 2.5944399812799009e+01 5 -4 0
876 444 1 4.1499999999999998e-01 4.3279852269691785e+00 6.4517770171826205e+00 2.8811539081275868e+01 -2 -1 0
875 444 1 4.1499999999999998e-01 3.5987899544715609e+00 6.2679319563572413e+00 3.0125453253323652e+01 -2 -1 0
1110 444 1 4.1499999999999998e-01 5.1482295867442174e+00 2.6397739783271819e+00 2.8450510041166847e+01 -1 2 0
3133 444 2 -8.2999999999999996e-01 8.7454606952443186e+00 3.0272705978662708e+00 2.7888586480341733e+01 2 7 0
3134 444 1 4.1499999999999998e-01 9.5515166758475605e+00 3.4895708656233873e+00 2.7658838542086151e+01 2 7 0
1108 444 2 -8.2999999999999996e-01 5.8079979772406549e+00 3.0288417939062260e+00 2.9024586989578712e+01 -1 2 0
1109 444 1 4.1499999999999998e-01 5.8765070461588840e+00 2.4190804779632500e+00 2.9759250642115855e+01 -1 2 0
6510 444 1 4.1499999999999998e-01 5.6662263851409946e+00 3.3092147390581568e+00 2.5106006268460412e+01 5 -4 0
874 444 2 -8.2999999999999996e-01 3.5502631620746601e+00 6.7358541590858358e+00 2.9291831132622100e+01 -2 -1 0
5014 444 2 -8.2999999999999996e-01 2.2246270815501581e+00 8.9309973382707160e+00 3.0248169832811893e+01 0 -2 0
6461 444 1 4.1499999999999998e-01 8.3972012045511395e+00 4.0372701918013192e+00 3.2188507934771330e+01 4 -4 0
2845 444 2 -8.2999999999999996e-01 3.6506241610145311e+00 4.8046835491210231e+00 3.1249878044808877e+01 2 -4 0
3804 444 1 4.1499999999999998e-01 9.5257005691212111e+00 5.4709751577796757e+00 2.6459302312007178e+01 6 0 0
6671 444 1 4.1499999999999998e-01 1.4982652563583621e+00 5.8812013635419227e+00 2.7398530859957642e+01 -3 4 0
2846 444 1 4.1499999999999998e-01 3.6576997433756460e+00 5.3630801754951873e+00 3.2027293903056496e+01 2 -4 0
3802 444 2 -8.2999999999999996e-01 9.2961224222698338e+00 5.9372005731320785e+00 2.5655461685880734e+01 6 0 0