LAMMPS data file via write_data, version 11 Aug 2017, timestep = 5000000

7512 atoms
7 atom types
4400 bonds
5 bond types
2650 angles
3 angle types
750 dihedrals
2 dihedral types

0.0000000000000000e+00 4.5679949999999998e+01 xlo xhi
0.0000000000000000e+00 4.6885919999999999e+01 ylo yhi
0.0000000000000000e+00 6.5000000000000000e+01 zlo zhi

Masses

1 1.0079
2 15.9994
3 22.9898
4 15.9994
5 12.011
6 1.0079
7 107.868

Angle Coeffs # harmonic

1 50 109.471
2 50 104.51
3 55 104.52

Dihedral Coeffs # charmm

1 0.111111 3 0 0
2 0.333333 3 0 0

Atoms # full

6361 444 7 0.0000000000000000e+00 1.6907200000000000e+00 0.0000000000000000e+00 0.0000000000000000e+00 0 0 0
6362 444 7 0.0000000000000000e+00 4.2285000000000004e+00 1.4651900000000000e+00 0.0000000000000000e+00 0 0 0
6363 444 7 -3.4720000000000001e-02 1.6907700000000001e+00 0.0000000000000000e+00 7.1781499999999996e+00 0 0 0
6364 444 7 -3.4720000000000001e-02 4.2285500000000003e+00 1.4651900000000000e+00 7.1781499999999996e+00 0 0 0
6365 444 7 0.0000000000000000e+00 2.5366499999999998e+00 1.4651900000000000e+00 2.3926400000000001e+00 0 0 0
6366 444 7 0.0000000000000000e+00 5.0744199999999999e+00 0.0000000000000000e+00 2.3926400000000001e+00 0 0 0
6367 444 7 0.0000000000000000e+00 8.4509000000000001e-01 1.4651900000000000e+00 4.7824200000000001e+00 0 0 0
6368 444 7 0.0000000000000000e+00 3.3828600000000000e+00 0.0000000000000000e+00 4.7824499999999999e+00 0 0 0
6369 444 7 0.0000000000000000e+00 1.6907200000000000e+00 2.9303699999999999e+00 0.0000000000000000e+00 0 0 0
6370 444 7 0.0000000000000000e+00 4.2285000000000004e+00 4.3955599999999997e+00 0.0000000000000000e+00 0 0 0
6371 444 7 -3.4720000000000001e-02 1.6907700000000001e+00 2.9303699999999999e+00 7.1781899999999998e+00 0 0 0
6372 444 7 -3.4720000000000001e-02 4.2285500000000003e+00 4.3955599999999997e+00 7.1781600000000001e+00 0 0 0
6373 444 7 0.0000000000000000e+00 2.5366499999999998e+00 4.3955599999999997e+00 2.3926400000000001e+00 0 0 0
6374 444 7 0.0000000000000000e+00 5.0744199999999999e+00 2.9303699999999999e+00 2.3926400000000001e+00 0 0 0
6375 444 7 0.0000000000000000e+00 8.4509000000000001e-01 4.3955599999999997e+00 4.7824499999999999e+00 0 0 0
6376 444 7 0.0000000000000000e+00 3.3828700000000000e+00 2.9303699999999999e+00 4.7824400000000002e+00 0 0 0
6377 444 7 0.0000000000000000e+00 1.6907200000000000e+00 5.8607399999999998e+00 0.0000000000000000e+00 0 0 0
6378 444 7 0.0000000000000000e+00 4.2285000000000004e+00 7.3259299999999996e+00 0.0000000000000000e+00 0 0 0
6379 444 7 -3.4720000000000001e-02 1.6907700000000001e+00 5.8607399999999998e+00 7.1781499999999996e+00 0 0 0
6380 444 7 -3.4720000000000001e-02 4.2285500000000003e+00 7.3259299999999996e+00 7.1781499999999996e+00 0 0 0
6381 444 7 0.0000000000000000e+00 2.5366499999999998e+00 7.3259299999999996e+00 2.3926400000000001e+00 0 0 0
6382 444 7 0.0000000000000000e+00 5.0744199999999999e+00 5.8607399999999998e+00 2.3926400000000001e+00 0 0 0
6383 444 7 0.0000000000000000e+00 8.4509000000000001e-01 7.3259299999999996e+00 4.7824200000000001e+00 0 0 0
6384 444 7 0.0000000000000000e+00 3.3828600000000000e+00 5.8607399999999998e+00 4.7824499999999999e+00 0 0 0
6489 444 7 0.0000000000000000e+00 6.7662699999999996e+00 0.0000000000000000e+00 0.0000000000000000e+00 0 0 0
6490 444 7 0.0000000000000000e+00 9.3040500000000002e+00 1.4651900000000000e+00 0.0000000000000000e+00 0 0 0
6491 444 7 -3.4720000000000001e-02 6.7663200000000003e+00 0.0000000000000000e+00 7.1781499999999996e+00 0 0 0
6492 444 7 -3.4720000000000001e-02 9.3041000000000000e+00 1.4651900000000000e+00 7.1781499999999996e+00 0 0 0
6493 444 7 0.0000000000000000e+00 7.6121999999999996e+00 1.4651900000000000e+00 2.3926400000000001e+00 0 0 0
6494 444 7 0.0000000000000000e+00 1.0149970000000000e+01 0.0000000000000000e+00 2.3926400000000001e+00 0 0 0
6495 444 7 0.0000000000000000e+00 5.9206399999999997e+00 1.4651900000000000e+00 4.7824200000000001e+00 0 0 0
6496 444 7 0.0000000000000000e+00 8.4584100000000007e+00 0.0000000000000000e+00 4.7824499999999999e+00 0 0 0
6497 444 7 0.0000000000000000e+00 6.7662699999999996e+00 2.9303699999999999e+00 0.0000000000000000e+00 0 0 0
6498 444 7 0.0000000000000000e+00 9.3040500000000002e+00 4.3955599999999997e+00 0.0000000000000000e+00 0 0 0
6499 444 7 -3.4720000000000001e-02 6.7663200000000003e+00 2.9303699999999999e+00 7.1781899999999998e+00 0 0 0
6500 444 7 -3.4720000000000001e-02 9.3041000000000000e+00 4.3955599999999997e+00 7.1781600000000001e+00 0 0 0
6501 444 7 0.0000000000000000e+00 7.6121999999999996e+00 4.3955599999999997e+00 2.3926400000000001e+00 0 0 0
6502 444 7 0.0000000000000000e+00 1.0149970000000000e+01 2.9303699999999999e+00 2.3926400000000001e+00 0 0 0
6503 444 7 0.0000000000000000e+00 5.9206399999999997e+00 4.3955599999999997e+00 4.7824499999999999e+00 0 0 0
6504 444 7 0.0000000000000000e+00 8.4584200000000003e+00 2.9303699999999999e+00 4.7824400000000002e+00 0 0 0
6623 444 7 0.0000000000000000e+00 1.0996190000000000e+01 1.4651900000000000e+00 4.7824200000000001e+00 0 0 0
6631 444 7 0.0000000000000000e+00 1.0996190000000000e+01 4.3955599999999997e+00 4.7824499999999999e+00 0 0 0
6505 444 7 0.0000000000000000e+00 6.7662699999999996e+00 5.8607399999999998e+00 0.0000000000000000e+00 0 0 0
6506 444 7 0.0000000000000000e+00 9.3040500000000002e+00 7.3259299999999996e+00 0.0000000000000000e+00 0 0 0
6507 444 7 -3.4720000000000001e-02 6.7663200000000003e+00 5.8607399999999998e+00 7.1781499999999996e+00 0 0 0
6508 444 7 -3.4720000000000001e-02 9.3041000000000000e+00 7.3259299999999996e+00 7.1781499999999996e+00 0 0 0
6509 444 7 0.0000000000000000e+00 7.6121999999999996e+00 7.3259299999999996e+00 2.3926400000000001e+00 0 0 0
6510 444 7 0.0000000000000000e+00 1.0149970000000000e+01 5.8607399999999998e+00 2.3926400000000001e+00 0 0 0
6511 444 7 0.0000000000000000e+00 5.9206399999999997e+00 7.3259299999999996e+00 4.7824200000000001e+00 0 0 0
6512 444 7 0.0000000000000000e+00 8.4584100000000007e+00 5.8607399999999998e+00 4.7824499999999999e+00 0 0 0
6639 444 7 0.0000000000000000e+00 1.0996190000000000e+01 7.3259299999999996e+00 4.7824200000000001e+00 0 0 0
1408 444 2 -8.2999999999999996e-01 9.8714818638623161e+00 4.3753904217249735e+00 1.0474539290512281e+01 5 0 0
955 444 2 -8.2999999999999996e-01 2.6506570031813110e+00 5.0788588784967397e+00 1.2551667438417802e+01 -4 -1 0
3046 444 2 -8.2999999999999996e-01 5.1267089472116796e+00 2.6709813330120049e+00 1.1968449149962726e+01 1 2 0
2941 444 2 -8.2999999999999996e-01 7.2817978613269734e+00 3.9200291295047913e+00 1.0741458482159400e+01 5 2 0
2942 444 1 4.1499999999999998e-01 7.0063009785647123e+00 4.6844372259790577e+00 1.0235479983922458e+01 5 2 0
3047 444 1 4.1499999999999998e-01 4.4134028752472894e+00 3.0606318901950376e+00 1.1462881155315422e+01 1 2 0
957 444 1 4.1499999999999998e-01 2.9856738747517140e+00 5.5212173432988481e+00 1.1771722212530632e+01 -4 -1 0
1101 444 1 4.1499999999999998e-01 6.7306865670629890e+00 2.3716441134097233e+00 1.4800466129160702e+01 1 5 0
3048 444 1 4.1499999999999998e-01 5.8970595971100437e+00 3.1890499271460202e+00 1.1735217167616129e+01 1 2 0
1099 444 2 -8.2999999999999996e-01 6.0967087086225646e+00 1.9451224990524771e+00 1.5376994001227798e+01 1 5 0
5286 444 1 4.1499999999999998e-01 7.3886696517330588e+00 6.3355641581950479e+00 1.3190938006122524e+01 1 0 0
5285 444 1 4.1499999999999998e-01 8.0072815502401955e+00 5.9539042277616057e+00 1.1862950721760035e+01 1 0 0
2943 444 1 4.1499999999999998e-01 8.2324161078316145e+00 3.8905577289955877e+00 1.0633340409595771e+01 5 2 0
1100 444 1 4.1499999999999998e-01 6.6285832682774410e+00 1.4011103908975864e+00 1.5957848947347182e+01 1 5 0
5284 444 2 -8.2999999999999996e-01 8.2326900033002861e+00 6.2056642170811491e+00 1.2758517464370426e+01 1 0 0
5014 444 2 -8.2999999999999996e-01 6.6362741539184009e+00 6.5957748876325493e+00 1.0323486963981262e+01 2 6 0
3431 444 1 4.1499999999999998e-01 4.4643865641608231e+00 3.8387976304252560e+00 1.4773213369273265e+01 -3 -1 0
3430 444 2 -8.2999999999999996e-01 3.5957420877619559e+00 4.1881160296754594e+00 1.4972375768994020e+01 -3 -1 0
4311 444 1 4.1499999999999998e-01 3.5357775821469850e-01 7.0261482961829254e+00 1.4445675278045403e+01 -4 1 0
3432 444 1 4.1499999999999998e-01 3.2346407454154487e+00 4.4334583941578707e+00 1.4120527074592504e+01 -3 -1 0
956 444 1 4.1499999999999998e-01 1.8066907906517156e+00 4.7185893131469570e+00 1.2279346418879641e+01 -4 -1 0
4541 444 1 4.1499999999999998e-01 7.5815250643813936e+00 3.2535209649967718e+00 1.2746265985847877e+01 9 -1 0
4540 444 2 -8.2999999999999996e-01 7.7322131302182227e+00 3.3151861405109782e+00 1.3689517183982302e+01 9 -1 0
5336 444 1 4.1499999999999998e-01 2.8990431704884725e+00 2.3503690673559627e+00 1.6248470060222370e+01 -1 3 0
4542 444 1 4.1499999999999998e-01 8.0885974719059544e+00 4.1941316296896369e+00 1.3818657886557057e+01 9 -1 0
1801 444 2 -8.2999999999999996e-01 1.1956105967430202e+00 1.1361071813721619e+00 1.2336962446405611e+01 -4 1 0
4265 444 1 4.1499999999999998e-01 9.7884724681412951e+00 1.9974982817011158e+00 1.5275805061000460e+01 -1 1 0
5016 444 1 4.1499999999999998e-01 6.0273106512394889e+00 7.3025530416656093e+00 1.0537636341595581e+01 2 6 0
4264 444 2 -8.2999999999999996e-01 1.0649355468310336e+01 2.3990783541525675e+00 1.5158136432626399e+01 -1 1 0
3561 444 1 4.1499999999999998e-01 2.8514035299286387e+00 1.7004446038824181e+00 9.9213788798314333e+00 1 2 0
3559 444 2 -8.2999999999999996e-01 2.5886499377248082e+00 2.5231652073418713e+00 1.0334081684426325e+01 1 2 0
1802 444 1 4.1499999999999998e-01 1.7528185349993877e+00 1.6054714513456432e+00 1.1716116381453681e+01 -4 1 0
5794 444 2 -8.2999999999999996e-01 7.1121640390022138e+00 1.6575848355461625e-01 1.0511605643671396e+01 -4 0 0
3560 444 1 4.1499999999999998e-01 2.8546140283416301e+00 3.1997022340007950e+00 9.7113515475369443e+00 1 2 0
5015 444 1 4.1499999999999998e-01 7.3348601401821139e+00 7.0228783240382713e+00 9.8277126907954742e+00 2 6 0
4568 444 1 4.1499999999999998e-01 2.7311639992693477e+00 7.7686337892030277e+00 1.4385587680651996e+01 1 3 0
4054 444 2 -8.2999999999999996e-01 9.8632176163063416e+00 2.1022824653818675e-01 1.1122579935208726e+01 1 -2 0
67 444 6 2.9999999999999999e-02 8.8790891362724658e+00 6.7295298521730915e+00 1.5602630196190146e+01 3 1 0
4266 444 1 4.1499999999999998e-01 1.0519073120806638e+01 3.0477001834782405e+00 1.4466364599849474e+01 -1 1 0
5645 444 1 4.1499999999999998e-01 4.6331456612149404e+00 6.0277084786712951e+00 1.0895134004751631e+01 1 1 0
5795 444 1 4.1499999999999998e-01 6.2819027801078109e+00 3.1100254572548058e-01 1.0965260252970207e+01 -4 0 0
1803 444 1 4.1499999999999998e-01 1.3028095557942907e+00 2.1347969727550159e-01 1.2105663117777585e+01 -4 1 0
5646 444 1 4.1499999999999998e-01 3.8306887702015744e+00 6.8225758881065888e+00 9.8870943356832370e+00 1 1 0
618 444 1 4.1499999999999998e-01 6.2169353915116110e-01 1.9806368939216736e+00 1.4045111255063478e+01 -1 0 0
5901 444 1 4.1499999999999998e-01 4.9231242315119665e+00 1.0230141428330051e+00 1.2844763117329331e+01 5 5 0
6185 444 1 4.1499999999999998e-01 1.1163123381624215e+01 6.5293404616081991e+00 1.2321251416283001e+01 -6 -3 0
1409 444 1 4.1499999999999998e-01 1.0591423820269029e+01 4.9106622419675485e+00 1.0808304976547815e+01 5 0 0
1766 444 1 4.1499999999999998e-01 1.1252382544659262e+01 1.3011973831467618e+00 1.1017140647188741e+01 2 1 0
6186 444 1 4.1499999999999998e-01 1.1269607772868584e+01 7.0599917071584342e+00 1.0907403641433223e+01 -6 -3 0
2353 444 2 -8.2999999999999996e-01 5.6129743109074359e-01 7.1145610082217399e+00 1.0335897287752685e+01 8 1 0
4602 444 1 4.1499999999999998e-01 6.3464854369042101e-01 3.3421883880664094e+00 1.6167820070211079e+01 -2 -1 0
66 444 6 2.9999999999999999e-02 7.2580431471169629e+00 7.3537515980125212e+00 1.6039828931125761e+01 3 1 0
4567 444 2 -8.2999999999999996e-01 1.9880326186263091e+00 7.4331577265335973e+00 1.3884145651062216e+01 1 3 0
1410 444 1 4.1499999999999998e-01 9.6182885002674823e+00 4.7983884587747037e+00 9.6540530707549266e+00 5 0 0
5796 444 1 4.1499999999999998e-01 7.2626439340574667e+00 9.7425585544058546e-01 1.0021789511377030e+01 -4 0 0
4569 444 1 4.1499999999999998e-01 2.2850399795333556e+00 6.5856409777398675e+00 1.3552883098801946e+01 1 3 0
5644 444 2 -8.2999999999999996e-01 3.8001735811785622e+00 6.0304232471559889e+00 1.0423559659095554e+01 1 1 0
5899 444 2 -8.2999999999999996e-01 4.5234585065302966e+00 1.5699043078088987e-01 1.2925404803291087e+01 5 5 0
1767 444 1 4.1499999999999998e-01 1.1015907023332980e+01 2.7387578095829017e+00 1.0605564960571503e+01 2 1 0
5099 444 1 4.1499999999999998e-01 5.0691209983550394e+00 6.5468740015616946e+00 1.4290254857264085e+01 -2 -6 0
5100 444 1 4.1499999999999998e-01 5.8255501555259865e+00 7.5538550895309058e+00 1.3450195538670066e+01 -2 -6 0
3655 444 2 -8.2999999999999996e-01 4.0953118221023423e+00 7.5795898666512889e+00 1.5647617327167167e+01 -6 -3 0
737 444 1 4.1499999999999998e-01 9.3477304618563011e+00 7.5968260085232471e+00 1.3404233708352242e+01 -4 -1 0
2354 444 1 4.1499999999999998e-01 1.0524548175087161e+00 6.3244863652666856e+00 1.0110556317778133e+01 8 1 0
5098 444 2 -8.2999999999999996e-01 5.6955984775375308e+00 6.6130607335000491e+00 1.3569576154081247e+01 -2 -6 0
616 444 2 -8.2999999999999996e-01 1.6965467499544296e-01 2.5787928324527454e+00 1.4640176132275315e+01 -1 0 0
4056 444 1 4.1499999999999998e-01 8.9433386593004442e+00 1.5577820088868322e-01 1.0863561368261150e+01 1 -2 0
5335 444 2 -8.2999999999999996e-01 3.2455845298196269e+00 1.6426997744044822e+00 1.6791927324162177e+01 -1 3 0
4600 444 2 -8.2999999999999996e-01 7.9415723162707874e-01 3.9274034864670675e+00 1.6908301088135580e+01 -2 -1 0
5337 444 1 4.1499999999999998e-01 4.0123501214357571e+00 1.3265805898110572e+00 1.6314044892250248e+01 -1 3 0
6051 444 1 4.1499999999999998e-01 2.1617367949631063e+00 5.1702646131829413e+00 1.7192992473914778e+01 6 1 0
6049 444 2 -8.2999999999999996e-01 3.0156159771752487e+00 5.5964725172788246e+00 1.7266945459542178e+01 6 1 0
6050 444 1 4.1499999999999998e-01 3.5683953740130425e+00 5.1377663607638535e+00 1.6634287988422692e+01 6 1 0
869 444 1 4.1499999999999998e-01 1.6894798534973223e+00 7.1106169809707775e-01 1.6475013943972158e+01 -5 8 0
936 444 1 4.1499999999999998e-01 2.3271371594346091e+00 1.8561223494893693e+00 1.8337615172623234e+01 -4 4 0
935 444 1 4.1499999999999998e-01 1.3506128827883856e+00 3.0104467933845673e+00 1.8413973614670706e+01 -4 4 0
4249 444 2 -8.2999999999999996e-01 3.7181441080952111e+00 7.6063631724838325e+00 2.1950749405372942e+01 4 1 0
2819 444 1 4.1499999999999998e-01 8.4825250218168458e-01 6.8834131338075082e+00 2.4284347640263146e+01 1 -2 0
6303 444 1 4.1499999999999998e-01 1.5580719958298012e-01 2.3587393593172408e+00 1.9783770677864499e+01 4 -1 0
1696 444 2 -8.2999999999999996e-01 1.0163131297440813e+01 1.5194474525509207e+00 1.8690894391029651e+01 4 -1 0
2130 444 1 4.1499999999999998e-01 1.7260219795126621e+00 1.6555834204217239e+00 2.2588398586039485e+01 -3 0 0
37 444 4 -4.0000000000000002e-01 1.1149991840707298e+01 7.1309145266197618e+00 1.9370805174843664e+01 3 1 0
72 444 3 1.0000000000000000e+00 8.7749383639314349e+00 7.0375899978363190e+00 1.9701864714120191e+01 3 1 0
2820 444 1 4.1499999999999998e-01 7.1909713095777372e-01 7.5058340852234346e+00 2.2910373017972955e+01 1 -2 0
934 444 2 -8.2999999999999996e-01 1.5903273857683604e+00 2.1917719804268567e+00 1.8848185976804675e+01 -4 4 0
1485 444 1 4.1499999999999998e-01 2.7774012317847530e+00 6.6023631358087895e+00 1.8754526094353984e+01 -1 -1 0
70 444 6 2.9999999999999999e-02 8.5600125098494466e+00 4.3250355741248807e+00 1.6822990757988325e+01 3 1 0
5463 444 1 4.1499999999999998e-01 4.9230357010896260e+00 1.9521271679169330e+00 1.9058182967641823e+01 -1 0 0
6346 444 2 -8.2999999999999996e-01 4.5439870194457779e+00 5.1530094642948443e+00 2.1116617487807158e+01 -1 -3 0
2801 444 1 4.1499999999999998e-01 4.5407466270478780e+00 2.4108326048760231e+00 2.2966733380645760e+01 -4 -2 0
2800 444 2 -8.2999999999999996e-01 4.9775772829559601e+00 1.7589052717487308e+00 2.2418644242324255e+01 -4 -2 0
5462 444 1 4.1499999999999998e-01 5.1431335090071224e+00 1.7701576449808099e+00 2.0544904069427034e+01 -1 0 0
5461 444 2 -8.2999999999999996e-01 5.3451858226570224e+00 1.3766631043244315e+00 1.9696040517029925e+01 -1 0 0
2802 444 1 4.1499999999999998e-01 4.4293666971422567e+00 9.7766371641565941e-01 2.2491847426666265e+01 -4 -2 0
46 444 5 1.4000000000000001e-01 9.5444398418981216e+00 4.7185106481756236e+00 2.0989356929896655e+01 3 1 0
64 444 6 2.9999999999999999e-02 7.6139173539607654e+00 3.7808454126251534e+00 2.1033001530371077e+01 3 1 0
50 444 5 1.4000000000000001e-01 7.1423327281120459e+00 4.4516742915561105e+00 1.8413282017849745e+01 3 1 0
69 444 6 2.9999999999999999e-02 6.8237331093665627e+00 3.3772050383593228e+00 1.8254781853919972e+01 3 1 0
40 444 4 -4.0000000000000002e-01 8.3008495049342255e+00 4.5640620551819318e+00 1.9237477010602518e+01 3 1 0
48 444 5 1.4000000000000001e-01 8.0773890721544159e+00 4.6717983629332025e+00 2.0622091278030439e+01 3 1 0
38 444 4 -4.0000000000000002e-01 1.0258863612144966e+01 4.9482558028062424e+00 1.9735183073432431e+01 3 1 0
68 444 6 2.9999999999999999e-02 6.2802859863147189e+00 5.0778808090594545e+00 1.8678658014544705e+01 3 1 0
65 444 6 2.9999999999999999e-02 7.4970325273154490e+00 5.6064274999287802e+00 2.0886851519802548e+01 3 1 0
51 444 5 1.4000000000000001e-01 7.6954706753306210e+00 4.9340147981946796e+00 1.7089926423696053e+01 3 1 0
529 444 2 -8.2999999999999996e-01 7.0138418647316296e+00 1.7175077430207795e+00 2.4284408241517465e+01 6 -2 0
530 444 1 4.1499999999999998e-01 6.4889130539735707e+00 1.5640435088421838e+00 2.3498831808899922e+01 6 -2 0
531 444 1 4.1499999999999998e-01 7.1001810240933629e+00 2.6695591881255791e+00 2.4333146949822083e+01 6 -2 0
71 444 6 2.9999999999999999e-02 6.8531280654546460e+00 4.8373066914014951e+00 1.6382573918257588e+01 3 1 0
41 444 4 -4.0000000000000002e-01 8.1428553170561511e+00 6.2332027449185370e+00 1.7414570849673364e+01 3 1 0
61 444 6 2.9999999999999999e-02 9.8813402663460206e+00 3.7121675294367078e+00 2.1290951875479006e+01 3 1 0
49 444 5 1.4000000000000001e-01 8.2839373913793004e+00 7.2037431337613658e+00 1.6378318615581374e+01 3 1 0
6348 444 1 4.1499999999999998e-01 4.9276757444318759e+00 6.0298146207304502e+00 2.1131716456554550e+01 -1 -3 0
2128 444 2 -8.2999999999999996e-01 1.7849351170823751e+00 1.0847927005622451e+00 2.1822265469788423e+01 -3 0 0
2129 444 1 4.1499999999999998e-01 1.4235297833873295e+00 1.6066583596531461e+00 2.1105833227111948e+01 -3 0 0
5638 444 2 -8.2999999999999996e-01 8.9726478782708234e+00 3.5890461952635805e-01 2.0920008898883122e+01 0 0 0
4092 444 1 4.1499999999999998e-01 9.4976078554655814e+00 4.3362262493787773e-01 2.2399438270650450e+01 1 -2 0
5833 444 2 -8.2999999999999996e-01 6.8513820137094017e-01 2.9838344351347756e+00 2.3583798194492989e+01 -2 5 0
1483 444 2 -8.2999999999999996e-01 2.5432586487842035e+00 6.9636235987147632e+00 1.9609453395961079e+01 -1 -1 0
2177 444 1 4.1499999999999998e-01 1.0592877519244640e+01 6.4255856765148094e+00 1.7352353361524685e+01 -3 0 0
4090 444 2 -8.2999999999999996e-01 9.8353236676995923e+00 6.4828034638129295e-01 2.3268979537830649e+01 1 -2 0
60 444 6 2.9999999999999999e-02 9.7325181922704935e+00 5.4281194666750014e+00 2.1761911549938674e+01 3 1 0
6347 444 1 4.1499999999999998e-01 3.8137243542740542e+00 5.2211717266186559e+00 2.0501554438595850e+01 -1 -3 0
5640 444 1 4.1499999999999998e-01 9.3207164383039984e+00 8.7985198493455496e-01 2.0196341867513112e+01 0 0 0
1697 444 1 4.1499999999999998e-01 9.9480885460618929e+00 2.3745813985329489e+00 1.9063365429352839e+01 4 -1 0
413 444 1 4.1499999999999998e-01 3.9014632559578795e+00 4.6132063317217122e+00 2.2753229112614338e+01 3 6 0
5834 444 1 4.1499999999999998e-01 1.4463355712443196e+00 3.5257974950167741e+00 2.3791370978971834e+01 -2 5 0
3657 444 1 4.1499999999999998e-01 3.5013367437545981e+00 7.1394481739646025e+00 1.6255647551310279e+01 -6 -3 0
503 444 1 4.1499999999999998e-01 5.5700596050197406e+00 7.3565337565811442e+00 2.4146483279168123e+01 3 3 0
1698 444 1 4.1499999999999998e-01 1.0775582348147138e+01 1.7138537171075172e+00 1.7981428134030395e+01 4 -1 0
745 444 2 -8.2999999999999996e-01 9.7363622787360651e+00 3.4019696987760750e+00 2.4355148442343587e+01 0 -1 0
412 444 2 -8.2999999999999996e-01 3.5769092361784294e+00 4.6516108730773631e+00 2.3652907750882598e+01 3 6 0
2927 444 1 4.1499999999999998e-01 6.5011927918232884e+00 5.1499366379173015e+00 2.4139801257097240e+01 -4 -1 0
4251 444 1 4.1499999999999998e-01 3.1000642321665830e+00 7.5475422959933862e+00 2.2679274783757446e+01 4 1 0
414 444 1 4.1499999999999998e-01 4.0847308132006672e+00 5.3526059725900250e+00 2.4061509045040744e+01 3 6 0
2818 444 2 -8.2999999999999996e-01 1.2353250143170162e+00 7.5486870009711460e+00 2.3715298042900805e+01 1 -2 0
4250 444 1 4.1499999999999998e-01 3.1734959878019549e+00 7.5307457771802726e+00 2.1167249370295831e+01 4 1 0
4715 444 1 4.1499999999999998e-01 9.9427730427102539e+00 7.5450898252926732e+00 2.4010617786916153e+01 4 0 0
4714 444 2 -8.2999999999999996e-01 9.0588392304973571e+00 7.1943952857900051e+00 2.3901500829070724e+01 4 0 0
2176 444 2 -8.2999999999999996e-01 1.1364083035264764e+01 6.1819792456820108e+00 1.6840367030222659e+01 -3 0 0
5444 444 1 4.1499999999999998e-01 1.1263849758078749e+01 1.4491513689697020e+00 2.2551827629926443e+01 2 3 0
1793 444 1 4.1499999999999998e-01 8.2593033881465789e+00 7.6461360605610578e+00 2.2397089108741259e+01 -1 6 0
1484 444 1 4.1499999999999998e-01 1.7791939186695525e+00 7.5136388285313078e+00 1.9436475743856303e+01 -1 -1 0
741 444 1 4.1499999999999998e-01 9.4119837664249495e+00 2.1277721109439796e-01 1.7873484180273060e+01 6 -3 0
4091 444 1 4.1499999999999998e-01 9.4022640194983804e+00 2.7258066243440737e-02 2.3854660803660135e+01 1 -2 0
2362 444 2 -8.2999999999999996e-01 7.0580941694931759e-02 5.7880613987961391e+00 2.5216484509181694e+01 -2 2 0
1476 444 1 4.1499999999999998e-01 1.4727753732844482e+00 7.9324662237120669e-01 3.1202972848831564e+01 -3 -3 0
1474 444 2 -8.2999999999999996e-01 6.9721138033581809e-01 1.0351004842933880e+00 3.1709174825009597e+01 -3 -3 0
2607 444 1 4.1499999999999998e-01 6.9379493064978552e+00 3.8343440307743160e-01 2.5490715749777920e+01 6 -2 0
3128 444 1 4.1499999999999998e-01 3.3032938750411960e+00 1.1296065656159233e+00 2.9643797316609689e+01 -4 0 0
5502 444 1 4.1499999999999998e-01 6.4703617743100192e+00 6.8433350892109406e+00 3.0229125976670726e+01 0 1 0
1815 444 1 4.1499999999999998e-01 6.6293214181898907e+00 5.4308446362065355e-01 2.8875077194990080e+01 0 -1 0
3203 444 1 4.1499999999999998e-01 1.0763794733494532e+00 4.5442763035334455e+00 2.8337019451739277e+01 -3 -1 0
2363 444 1 4.1499999999999998e-01 2.8680273009027862e-01 5.0860965849236637e+00 2.5830264628983002e+01 -2 2 0
3127 444 2 -8.2999999999999996e-01 2.9137673061685487e+00 6.2919990646770918e-01 3.0360801629109673e+01 -4 0 0
6044 444 1 4.1499999999999998e-01 1.0037405981479591e+01 7.1393016465423633e+00 2.7399989798161723e+01 2 5 0
544 444 2 -8.2999999999999996e-01 4.1080692931826623e-01 1.3454758872579242e+00 2.7696160495090883e+01 5 1 0
1884 444 1 4.1499999999999998e-01 1.1123367314709469e+01 6.2218266546792638e+00 3.1912794403858204e+01 5 -1 0
3465 444 1 4.1499999999999998e-01 8.8847831975215907e+00 1.9393951762734443e-01 3.1488185641544000e+01 0 3 0
545 444 1 4.1499999999999998e-01 2.6096641955280070e-01 1.0932858748304621e+00 2.6785018116758160e+01 5 1 0
5500 444 2 -8.2999999999999996e-01 5.5588649259257741e+00 7.0260003005911003e+00 3.0457246107878987e+01 0 1 0
5333 444 1 4.1499999999999998e-01 1.0717351585715900e+01 3.6488669081530047e+00 2.6341821298043048e+01 3 -1 0
2655 444 1 4.1499999999999998e-01 1.0415906996801603e+01 2.0145199672097696e+00 3.1692774583098732e+01 0 3 0
2653 444 2 -8.2999999999999996e-01 1.0514797144843088e+01 2.8873844497637471e+00 3.2072985396753026e+01 0 3 0
5332 444 2 -8.2999999999999996e-01 1.1153700507811420e+01 4.2912253253846302e+00 2.6901471039220475e+01 3 -1 0
3202 444 2 -8.2999999999999996e-01 3.7514289190493860e-01 4.4302420701887204e+00 2.7695540034335984e+01 -3 -1 0
2337 444 1 4.1499999999999998e-01 1.0909818755321902e+01 1.5632109664566860e+00 2.8621893507787433e+01 -2 -1 0
3204 444 1 4.1499999999999998e-01 2.9014772478735168e-01 3.4817265070058849e+00 2.7598965967051519e+01 -3 -1 0
2560 444 2 -8.2999999999999996e-01 2.2268772257868412e+00 4.8852215868124924e+00 3.0040289462653284e+01 1 2 0
746 444 1 4.1499999999999998e-01 8.8649557734075337e+00 3.7941738248135892e+00 2.4410453991012957e+01 0 -1 0
3463 444 2 -8.2999999999999996e-01 9.7761988554421304e+00 5.4117396989098709e-01 3.1520406916222282e+01 0 3 0
911 444 1 4.1499999999999998e-01 7.7349287272579499e+00 5.6158360563116503e+00 2.9397324617479622e+01 5 4 0
6045 444 1 4.1499999999999998e-01 9.9725601577506602e+00 5.7120288934284611e+00 2.6899407429945718e+01 2 5 0
910 444 2 -8.2999999999999996e-01 7.8673366046007489e+00 6.5597657895817543e+00 2.9309593938536374e+01 5 4 0
912 444 1 4.1499999999999998e-01 8.5491112588761524e+00 6.6455581096915379e+00 2.8643219521946207e+01 5 4 0
3350 444 1 4.1499999999999998e-01 3.5320389779652923e+00 3.6430311738428309e+00 2.5185835436104419e+01 -3 3 0
1813 444 2 -8.2999999999999996e-01 6.1554103856968139e+00 1.3648502407154144e+00 2.9002915549894098e+01 0 -1 0
2928 444 1 4.1499999999999998e-01 6.6655560523429811e+00 4.2691285846697378e+00 2.5360070529125547e+01 -4 -1 0
3349 444 2 -8.2999999999999996e-01 3.8787808170767879e+00 3.0189635067885416e+00 2.5823441527963009e+01 -3 3 0
3351 444 1 4.1499999999999998e-01 4.4317161760809816e+00 3.5467377271370886e+00 2.6399591471679887e+01 -3 3 0
3533 444 1 4.1499999999999998e-01 1.7948649993465409e+00 6.9524028277790129e-01 2.5289659245907455e+01 -5 -7 0
3532 444 2 -8.2999999999999996e-01 2.7134771951118419e+00 5.6984408443291690e-01 2.5051625551537786e+01 -5 -7 0
3534 444 1 4.1499999999999998e-01 3.1316227499684266e+00 1.4052441952480583e+00 2.5260177002688017e+01 -5 -7 0
504 444 1 4.1499999999999998e-01 5.9750462255491517e+00 6.5427917014551884e+00 2.5357146290386662e+01 3 3 0
502 444 2 -8.2999999999999996e-01 5.3559265940962426e+00 6.5570191032718572e+00 2.4627269331659441e+01 3 3 0
4666 444 2 -8.2999999999999996e-01 4.2525977604527787e+00 5.9128431628389420e+00 2.8398334424291438e+01 7 -1 0
6043 444 2 -8.2999999999999996e-01 9.4241591011926609e+00 6.4251113476826793e+00 2.7226518346685765e+01 2 5 0
1345 444 2 -8.2999999999999996e-01 5.7713730821888998e+00 4.4961250596338642e+00 2.6908790196311333e+01 2 -2 0
1347 444 1 4.1499999999999998e-01 6.4165062003018054e+00 4.0835329221179828e+00 2.7483074847546124e+01 2 -2 0
1346 444 1 4.1499999999999998e-01 5.2656533610070868e+00 5.0671063227581952e+00 2.7487115251903546e+01 2 -2 0
890 444 1 4.1499999999999998e-01 7.7941824797715951e+00 7.0528586894711829e+00 2.6870185285654017e+01 -2 -1 0
1475 444 1 4.1499999999999998e-01 1.0314023901309335e+00 1.6024095087435291e+00 3.2403948179525052e+01 -3 -3 0
5287 444 2 -8.2999999999999996e-01 1.3940357737461939e+00 7.7749291638570845e+00 2.9688038246135527e+01 -2 -1 0
3337 444 2 -8.2999999999999996e-01 3.3481679239229640e+00 2.0676290300251559e+00 2.8198405566125459e+01 -3 1 0
2561 444 1 4.1499999999999998e-01 1.6793461891745141e+00 4.9309266717241584e+00 3.0824096337136886e+01 1 2 0
1601 444 1 4.1499999999999998e-01 1.0267302792557823e+01 3.6464176429242716e+00 3.0011548261129814e+01 -3 3 0
4668 444 1 4.1499999999999998e-01 3.5241047855244907e+00 5.4048654042488726e+00 2.8755389649699495e+01 7 -1 0
4667 444 1 4.1499999999999998e-01 4.7637718611173430e+00 6.1710830688952125e+00 2.9165305779986184e+01 7 -1 0
1814 444 1 4.1499999999999998e-01 5.3098299015205956e+00 1.2229439082901696e+00 2.8577370739344147e+01 0 -1 0
2926 444 2 -8.2999999999999996e-01 7.0118460154573423e+00 4.4151502359403167e+00 2.4479733759185624e+01 -4 -1 0
2335 444 2 -8.2999999999999996e-01 1.1265291728279168e+01 8.2754969451491545e-01 2.8123221716400483e+01 -2 -1 0
3338 444 1 4.1499999999999998e-01 2.4898893853304669e+00 1.6442163658703910e+00 2.8180755711648857e+01 -3 1 0
3339 444 1 4.1499999999999998e-01 3.5306743661981095e+00 2.2783840433746692e+00 2.7282706055777471e+01 -3 1 0
747 444 1 4.1499999999999998e-01 9.5893148167829771e+00 2.4682612727413384e+00 2.4506137325305883e+01 0 -1 0
5288 444 1 4.1499999999999998e-01 1.6258462997077145e+00 6.8462892470215095e+00 2.9676901246346699e+01 -2 -1 0
857 444 1 4.1499999999999998e-01 5.0689575510377409e+00 6.6470499345454952e+00 3.2037830148903282e+01 -3 7 0
5736 444 1 4.1499999999999998e-01 5.0810403619842672e+00 4.8991349596961573e+00 3.1924156199623823e+01 4 0 0
4716 444 1 4.1499999999999998e-01 8.8549963760890424e+00 6.7906688067640886e+00 2.4745115101628684e+01 4 0 0
460 444 2 -8.2999999999999996e-01 7.2301051973568242e+00 3.7168360846448394e+00 2.9046109384407018e+01 2 3 0
462 444 1 4.1499999999999998e-01 8.1038933120142218e+00 3.3447592297601796e+00 2.8926589321870914e+01 2 3 0
461 444 1 4.1499999999999998e-01 6.6525310692211574e+00 2.9564411478191048e+00 2.9112739562483153e+01 2 3 0
5734 444 2 -8.2999999999999996e-01 4.9666881438118029e+00 4.2606864768920172e+00 3.1220210904915870e+01 4 0 0
1600 444 2 -8.2999999999999996e-01 1.0082273695239119e+01 3.3571130600113639e+00 2.9118072454444803e+01 -3 3 0
2562 444 1 4.1499999999999998e-01 2.9392985788681489e+00 4.2923545994494718e+00 3.0279448828364139e+01 1 2 0
1602 444 1 4.1499999999999998e-01 1.0807339207229395e+01 3.7042148333215694e+00 2.8598425322157858e+01 -3 3 0
5735 444 1 4.1499999999999998e-01 5.8220089469285803e+00 4.2192856259270579e+00 3.0792491210033994e+01 4 0 0
3422 444 1 4.1499999999999998e-01 4.0092035918336446e+00 3.0893749317032548e+00 3.1833692077009360e+01 3 2 0
3421 444 2 -8.2999999999999996e-01 3.2673684113045733e+00 2.6106593966545661e+00 3.2203482594138691e+01 3 2 0