LAMMPS data file via write_data, version 11 Aug 2017, timestep = 500000

7800 atoms
7 atom types
4720 bonds
5 bond types
3170 angles
3 angle types
1350 dihedrals
2 dihedral types

0.0000000000000000e+00 4.5679949999999998e+01 xlo xhi
0.0000000000000000e+00 4.6885919999999999e+01 ylo yhi
0.0000000000000000e+00 6.5000000000000000e+01 zlo zhi

Masses

1 1.0079
2 15.9994
3 22.9898
4 15.9994
5 12.011
6 1.0079
7 107.868

Angle Coeffs # harmonic

1 50 109.471
2 50 104.51
3 55 104.52

Dihedral Coeffs # charmm

1 0.111111 3 0 0
2 0.333333 3 0 0

Atoms # full

6649 444 7 0.0000000000000000e+00 1.6907200000000000e+00 0.0000000000000000e+00 0.0000000000000000e+00 0 0 0
6650 444 7 0.0000000000000000e+00 4.2285000000000004e+00 1.4651900000000000e+00 0.0000000000000000e+00 0 0 0
6651 444 7 -6.2500000000000000e-02 1.6907700000000001e+00 0.0000000000000000e+00 7.1781499999999996e+00 0 0 0
6652 444 7 -6.2500000000000000e-02 4.2285500000000003e+00 1.4651900000000000e+00 7.1781499999999996e+00 0 0 0
6653 444 7 0.0000000000000000e+00 2.5366499999999998e+00 1.4651900000000000e+00 2.3926400000000001e+00 0 0 0
6654 444 7 0.0000000000000000e+00 5.0744199999999999e+00 0.0000000000000000e+00 2.3926400000000001e+00 0 0 0
6655 444 7 0.0000000000000000e+00 8.4509000000000001e-01 1.4651900000000000e+00 4.7824200000000001e+00 0 0 0
6656 444 7 0.0000000000000000e+00 3.3828600000000000e+00 0.0000000000000000e+00 4.7824499999999999e+00 0 0 0
6657 444 7 0.0000000000000000e+00 1.6907200000000000e+00 2.9303699999999999e+00 0.0000000000000000e+00 0 0 0
6658 444 7 0.0000000000000000e+00 4.2285000000000004e+00 4.3955599999999997e+00 0.0000000000000000e+00 0 0 0
6659 444 7 -6.2500000000000000e-02 1.6907700000000001e+00 2.9303699999999999e+00 7.1781899999999998e+00 0 0 0
6660 444 7 -6.2500000000000000e-02 4.2285500000000003e+00 4.3955599999999997e+00 7.1781600000000001e+00 0 0 0
6661 444 7 0.0000000000000000e+00 2.5366499999999998e+00 4.3955599999999997e+00 2.3926400000000001e+00 0 0 0
6662 444 7 0.0000000000000000e+00 5.0744199999999999e+00 2.9303699999999999e+00 2.3926400000000001e+00 0 0 0
6663 444 7 0.0000000000000000e+00 8.4509000000000001e-01 4.3955599999999997e+00 4.7824499999999999e+00 0 0 0
6664 444 7 0.0000000000000000e+00 3.3828700000000000e+00 2.9303699999999999e+00 4.7824400000000002e+00 0 0 0
4393 444 2 -8.2999999999999996e-01 1.3033222420491641e+00 1.6226559412491088e+00 1.2763905980162901e+01 -2 1 0
3187 444 2 -8.2999999999999996e-01 1.9527340838513141e+00 1.5909013436845882e+00 1.0027374433091618e+01 -2 -1 0
4395 444 1 4.1499999999999998e-01 1.1841046174954653e+00 1.6560137224675562e+00 1.1814744868418549e+01 -2 1 0
3189 444 1 4.1499999999999998e-01 2.0613703827340193e+00 1.9256878574901166e+00 9.1372350043399102e+00 -2 -1 0
4959 444 1 4.1499999999999998e-01 7.4753769500921563e-01 4.4260576374546479e-01 1.6128336280224513e+01 2 1 0
4394 444 1 4.1499999999999998e-01 8.0489423502199575e-01 8.5406336071533828e-01 1.3041517630672658e+01 -2 1 0
4595 444 1 4.1499999999999998e-01 2.4325156228545863e-01 4.3955996771799661e+00 1.4861238146821195e+01 1 -2 0
2669 444 1 4.1499999999999998e-01 3.5216941813746292e+00 2.8013173254983967e+00 1.1051156121856497e+01 -1 0 0
4269 444 1 4.1499999999999998e-01 1.7468779801124437e+00 3.5639893437483035e+00 1.5815196961086794e+01 -4 2 0
779 444 1 4.1499999999999998e-01 3.3853800617425227e+00 4.7623374794557236e+00 1.3054099136914694e+01 -3 1 0
658 444 2 -8.2999999999999996e-01 1.7153124329039726e+00 4.9967898490334761e+00 9.9619322755171460e+00 1 2 0
2668 444 2 -8.2999999999999996e-01 3.5239386689430896e+00 3.7150825091907693e+00 1.1336217523467173e+01 -1 0 0
4267 444 2 -8.2999999999999996e-01 2.7002076049606365e+00 3.6083664460475866e+00 1.5741537224976335e+01 -4 2 0
4268 444 1 4.1499999999999998e-01 2.8602204957836945e+00 4.3216708060500384e+00 1.5123616975095917e+01 -4 2 0
4596 444 1 4.1499999999999998e-01 4.8883288555482590e-01 3.0732701208669586e+00 1.4166234872036716e+01 1 -2 0
660 444 1 4.1499999999999998e-01 1.2596222224129876e+00 4.4169691257684454e+00 9.3516976444978308e+00 1 2 0
2670 444 1 4.1499999999999998e-01 2.8131669194936690e+00 4.1226207595720483e+00 1.0841295321647603e+01 -1 0 0
2595 444 1 4.1499999999999998e-01 5.3097232167425119e+00 1.7727230653844932e+00 1.3301318254710102e+01 0 3 0
4032 444 1 4.1499999999999998e-01 2.9642610160114464e+00 1.4770355274806655e+00 1.3356413031988568e+01 7 2 0
4030 444 2 -8.2999999999999996e-01 3.8049100000215663e+00 1.5806783845708816e+00 1.3802282199123532e+01 7 2 0
778 444 2 -8.2999999999999996e-01 3.3809511983255764e+00 5.4668226361489696e+00 1.3702106003675581e+01 -3 1 0
4251 444 1 4.1499999999999998e-01 4.8378311417665385e+00 4.2108578041334743e+00 1.0671420070498213e+01 -2 -2 0
4594 444 2 -8.2999999999999996e-01 1.8154770150544589e-01 3.4492620816280581e+00 1.4991121357077358e+01 1 -2 0
4031 444 1 4.1499999999999998e-01 3.5984009751798864e+00 2.0839877219639451e+00 1.4589851615064568e+01 7 2 0
3188 444 1 4.1499999999999998e-01 2.4374495829046836e+00 7.6553054798742504e-01 1.0034171272405292e+01 -2 -1 0
659 444 1 4.1499999999999998e-01 1.2066305253395377e+00 5.8075173555630686e+00 9.9479051722499960e+00 1 2 0
4958 444 1 4.1499999999999998e-01 2.8621121675720052e-01 1.8748727546527346e+00 1.5961948016069977e+01 2 1 0
2316 444 1 4.1499999999999998e-01 5.3130012727349776e+00 5.2036809806610496e+00 1.5079644570049579e+01 4 2 0
4250 444 1 4.1499999999999998e-01 5.3893383521262326e+00 5.1664714794285134e+00 9.6348210664549914e+00 -2 -2 0
4249 444 2 -8.2999999999999996e-01 5.6452991503600733e+00 4.6443263556862178e+00 1.0395137039974824e+01 -2 -2 0
2315 444 1 4.1499999999999998e-01 5.5610095767499876e+00 3.8548645795439840e+00 1.4438488150687560e+01 4 2 0
6023 444 1 4.1499999999999998e-01 5.3878313332408434e-01 2.3771068771435142e+00 2.3569753812157597e+01 -1 1 0
2119 444 2 -8.2999999999999996e-01 2.3191893432490263e+00 5.3402318722163651e+00 2.1784215454678534e+01 -1 0 0
297 444 5 1.4000000000000001e-01 1.3086811613412501e+00 7.9443743637330966e-01 2.0374738897731490e+01 2 3 0
6217 444 2 -8.2999999999999996e-01 4.2997897087139565e+00 3.7355960115171114e+00 2.0746873788774387e+01 1 0 0
5894 444 1 4.1499999999999998e-01 3.8516763546834838e+00 4.5138007245931382e+00 2.3652887941846817e+01 3 0 0
4623 444 1 4.1499999999999998e-01 4.9652714509301425e+00 3.4102015274638702e+00 1.7825184916094660e+01 -2 3 0
6218 444 1 4.1499999999999998e-01 5.1988973050622516e+00 4.0560922037658154e+00 2.0818433333255815e+01 1 0 0
4621 444 2 -8.2999999999999996e-01 4.0563762030805028e+00 3.3713525068968972e+00 1.8122897069308177e+01 -2 3 0
306 444 6 2.9999999999999999e-02 1.4626177893561507e+00 2.7900125327982410e+00 2.0670031242606928e+01 2 3 0
4622 444 1 4.1499999999999998e-01 3.5389087053969464e+00 3.5532644211566429e+00 1.7338442799805986e+01 -2 3 0
295 444 5 1.4000000000000001e-01 6.5453861075680053e-01 2.1550773523977282e+00 2.0494936402502461e+01 2 3 0
1506 444 1 4.1499999999999998e-01 1.8856215788346089e+00 5.3522791666247000e+00 2.3578541375995091e+01 -2 -4 0
6219 444 1 4.1499999999999998e-01 4.2318613437205235e+00 3.4097995636802461e+00 1.9849390902437722e+01 1 0 0
1629 444 1 4.1499999999999998e-01 1.8927939409467334e+00 5.3538033382094019e+00 1.8773637419785512e+01 6 0 0
307 444 6 2.9999999999999999e-02 1.2122249536792203e-01 2.3596883436488736e+00 1.9537747222042970e+01 2 3 0
2121 444 1 4.1499999999999998e-01 3.0602947566725587e+00 4.7388900807948664e+00 2.1710848644851293e+01 -1 0 0
311 444 6 2.9999999999999999e-02 2.2980070280705811e+00 9.3338995674014669e-01 1.9865777551034910e+01 2 3 0
6024 444 1 4.1499999999999998e-01 1.2440039292934413e+00 1.0894863025457180e+00 2.3939337439316901e+01 -1 1 0
3611 444 1 4.1499999999999998e-01 3.2281842690325924e+00 2.0657008102086367e+00 2.4248436464608261e+01 1 2 0
6022 444 2 -8.2999999999999996e-01 1.2612970882240444e+00 2.0337218257747764e+00 2.4095388794956420e+01 -1 1 0
291 444 4 -4.0000000000000002e-01 1.4427598145339120e+00 1.9986769554149980e-01 2.1703690882219018e+01 2 3 0
3980 444 1 4.1499999999999998e-01 5.5870952166910213e+00 1.5272443699132840e+00 2.4065414253752337e+01 0 -3 0
310 444 6 2.9999999999999999e-02 6.0612431137659417e-01 2.3008522549887372e-01 1.9706147966990809e+01 2 3 0
2120 444 1 4.1499999999999998e-01 2.0854894052477491e+00 5.5446885642564041e+00 2.0878779825485477e+01 -1 0 0
5893 444 2 -8.2999999999999996e-01 4.5138096626644408e+00 4.6708663294731352e+00 2.4326046038042868e+01 3 0 0
4957 444 2 -8.2999999999999996e-01 2.7620725986496392e-01 1.1432505832814968e+00 1.6579087510325074e+01 2 1 0
1503 444 1 4.1499999999999998e-01 3.6358270661012302e+00 3.5000539512745082e-01 2.7548218330712022e+01 3 0 0
5909 444 1 4.1499999999999998e-01 9.6782953946408701e-01 3.2963471127721942e+00 3.2293010386043903e+01 0 5 0
5117 444 1 4.1499999999999998e-01 5.1216731126756902e-03 3.2524955305660974e+00 2.7420761110303292e+01 0 3 0
5398 444 2 -8.2999999999999996e-01 1.5251353132711426e-01 7.1282233585055765e-01 3.0843618351019479e+01 0 -6 0
4070 444 1 4.1499999999999998e-01 5.1577841050775355e+00 5.4176143485855075e+00 2.6233388438834211e+01 0 -1 0
3612 444 1 4.1499999999999998e-01 3.9798799272969752e+00 1.6417225384841996e+00 2.5492257694879207e+01 1 2 0
5400 444 1 4.1499999999999998e-01 9.4184259406846915e-01 1.1972010408158760e+00 3.0601606740907403e+01 0 -6 0
5895 444 1 4.1499999999999998e-01 4.8646423508636181e+00 3.8027316428642619e+00 2.4524768588341004e+01 3 0 0
965 444 1 4.1499999999999998e-01 3.1316340642227751e+00 3.0193430437889646e+00 2.7078125190566098e+01 6 2 0
4558 444 2 -8.2999999999999996e-01 5.1900702215229364e+00 3.4054048373352530e+00 2.8878802551908315e+01 -3 0 0
1502 444 1 4.1499999999999998e-01 4.7124987335376609e+00 1.0582216789565830e+00 2.6753798415656224e+01 3 0 0
964 444 2 -8.2999999999999996e-01 3.0331441071017209e+00 3.9451551443493829e+00 2.7300394229781695e+01 6 2 0
4543 444 2 -8.2999999999999996e-01 2.0331549995229117e+00 5.2936073440349327e+00 2.9719211303544860e+01 1 -1 0
1505 444 1 4.1499999999999998e-01 1.3963569570748022e+00 4.4569601558515268e+00 2.4696986578530982e+01 -2 -4 0
1504 444 2 -8.2999999999999996e-01 1.5508444974348337e+00 5.3751574952413215e+00 2.4474997444642451e+01 -2 -4 0
3452 444 1 4.1499999999999998e-01 2.4402914447152670e+00 5.6007142683536824e+00 3.1689127509689786e+01 -1 2 0
1501 444 2 -8.2999999999999996e-01 3.7638524450264264e+00 1.0184157837700138e+00 2.6875114393987694e+01 3 0 0
2075 444 1 4.1499999999999998e-01 2.7586201524222531e+00 2.9347084968055648e+00 2.9702920159089516e+01 -1 0 0
4544 444 1 4.1499999999999998e-01 1.9487353723136493e+00 4.6398451855176868e+00 2.9025164870444261e+01 1 -1 0
966 444 1 4.1499999999999998e-01 2.1111554982612688e+00 4.1364760770366455e+00 2.7128448940647633e+01 6 2 0
2076 444 1 4.1499999999999998e-01 2.6314267016014274e+00 1.5124145527141213e+00 3.0205709968894286e+01 -1 0 0
2074 444 2 -8.2999999999999996e-01 2.2312465208212360e+00 2.3790375164504551e+00 3.0276800688434090e+01 -1 0 0
4559 444 1 4.1499999999999998e-01 4.3798400306132219e+00 3.7773885305800832e+00 2.8530394795545082e+01 -3 0 0
3610 444 2 -8.2999999999999996e-01 4.1111742284876822e+00 1.9886548368390302e+00 2.4609856608844101e+01 1 2 0
2814 444 1 4.1499999999999998e-01 5.5352587476831623e+00 2.3968548283091282e+00 3.0262994520463948e+01 -3 -2 0
5116 444 2 -8.2999999999999996e-01 4.4307774254276033e-01 4.1030146908755452e+00 2.7388446018698929e+01 0 3 0
2812 444 2 -8.2999999999999996e-01 5.6379045626317463e+00 2.0337898638768031e+00 3.1142698754160705e+01 -3 -2 0
2813 444 1 4.1499999999999998e-01 5.5087686978825463e+00 2.7807470245069039e+00 3.1727173557550167e+01 -3 -2 0
3507 444 1 4.1499999999999998e-01 5.4501014276682689e+00 5.1399061918643421e+00 3.1863752665055031e+01 1 0 0
4545 444 1 4.1499999999999998e-01 2.8425182072247974e+00 5.7606651035171756e+00 2.9511796736686456e+01 1 -1 0
5399 444 1 4.1499999999999998e-01 3.5510165766565682e-01 3.3633827986018555e-01 3.1700035952009930e+01 0 -6 0
2809 444 2 -8.2999999999999996e-01 5.1089314469871496e+00 5.8361058501887242e-01 3.8114278749977586e+01 1 3 0
5922 444 1 4.1499999999999998e-01 7.0766508817772200e-01 2.0646778982824610e+00 3.8436820678378581e+01 3 -2 0
6115 444 2 -8.2999999999999996e-01 4.1679932316994961e+00 5.3954134024851559e+00 3.4589756552311847e+01 -4 0 0
5908 444 2 -8.2999999999999996e-01 5.2200244754203029e-01 3.7697899663626582e+00 3.2995379396714590e+01 0 5 0
800 444 1 4.1499999999999998e-01 1.8819893660677043e+00 5.7284627886754711e+00 3.7319283103485688e+01 2 -1 0
3505 444 2 -8.2999999999999996e-01 5.5304818031218757e+00 4.4398076516857579e+00 3.2511543703242090e+01 1 0 0
2868 444 1 4.1499999999999998e-01 5.0615832212574885e+00 9.9931405312541233e-01 3.4016212695355208e+01 1 -2 0
1364 444 1 4.1499999999999998e-01 5.0290364270214809e+00 3.7090116366917778e+00 3.7284893299612712e+01 0 -1 0
799 444 2 -8.2999999999999996e-01 2.4581993194118650e+00 4.9919226938115298e+00 3.7523545113446858e+01 2 -1 0
4114 444 2 -8.2999999999999996e-01 4.5895329498038038e+00 2.5850598388672541e+00 3.4874558208635428e+01 1 -2 0
5921 444 1 4.1499999999999998e-01 2.0481797816592451e+00 1.8421602624601332e+00 3.9104205301731604e+01 3 -2 0
1569 444 1 4.1499999999999998e-01 3.1758347320857241e+00 2.4088041272673943e+00 3.6937272961729199e+01 -2 -1 0
5910 444 1 4.1499999999999998e-01 1.0489283502823388e+00 4.5582494610178399e+00 3.3125428955913947e+01 0 5 0
6116 444 1 4.1499999999999998e-01 3.5742483665550746e+00 5.5000015460307541e+00 3.3846278086491381e+01 -4 0 0
1568 444 1 4.1499999999999998e-01 3.1509840566004836e+00 3.3865643560059961e+00 3.8092808579606107e+01 -2 -1 0
2811 444 1 4.1499999999999998e-01 4.5893091710610676e+00 1.3603371618211726e+00 3.7907106397997474e+01 1 3 0
1556 444 1 4.1499999999999998e-01 1.5313324003623883e+00 2.0567197532541956e+00 3.4689789310002297e+01 0 0 0
1557 444 1 4.1499999999999998e-01 1.5426409652872271e+00 9.0814409952192487e-01 3.5675964383521439e+01 0 0 0
4116 444 1 4.1499999999999998e-01 3.6732916254453349e+00 2.3981110597030164e+00 3.5078970607798482e+01 1 -2 0
1555 444 2 -8.2999999999999996e-01 2.0465177044060736e+00 1.6736969135825805e+00 3.5399795972102723e+01 0 0 0
5920 444 2 -8.2999999999999996e-01 1.4078014977268820e+00 1.4189808353639337e+00 3.8532307741014066e+01 3 -2 0
4115 444 1 4.1499999999999998e-01 4.6016920694334988e+00 3.5173403142997572e+00 3.4657907699309533e+01 1 -2 0
1567 444 2 -8.2999999999999996e-01 3.6764913510217756e+00 2.6872960006263762e+00 3.7704095685018842e+01 -2 -1 0
3506 444 1 4.1499999999999998e-01 5.0172964585816793e+00 4.7450166939967149e+00 3.3259688774431275e+01 1 0 0
801 444 1 4.1499999999999998e-01 3.3301889525509552e+00 5.2906180746558498e+00 3.7265383717822026e+01 2 -1 0
2810 444 1 4.1499999999999998e-01 5.6013278498858066e+00 4.0365797699653222e-01 3.7313407540695394e+01 1 3 0
6665 444 7 0.0000000000000000e+00 1.6907200000000000e+00 5.8607399999999998e+00 0.0000000000000000e+00 0 0 0
6666 444 7 0.0000000000000000e+00 4.2285000000000004e+00 7.3259299999999996e+00 0.0000000000000000e+00 0 0 0
6667 444 7 -6.2500000000000000e-02 1.6907700000000001e+00 5.8607399999999998e+00 7.1781499999999996e+00 0 0 0
6668 444 7 -6.2500000000000000e-02 4.2285500000000003e+00 7.3259299999999996e+00 7.1781499999999996e+00 0 0 0
6669 444 7 0.0000000000000000e+00 2.5366499999999998e+00 7.3259299999999996e+00 2.3926400000000001e+00 0 0 0
6670 444 7 0.0000000000000000e+00 5.0744199999999999e+00 5.8607399999999998e+00 2.3926400000000001e+00 0 0 0
6671 444 7 0.0000000000000000e+00 8.4509000000000001e-01 7.3259299999999996e+00 4.7824200000000001e+00 0 0 0
6672 444 7 0.0000000000000000e+00 3.3828600000000000e+00 5.8607399999999998e+00 4.7824499999999999e+00 0 0 0
6673 444 7 0.0000000000000000e+00 1.6907200000000000e+00 8.7911099999999998e+00 0.0000000000000000e+00 0 0 0
6674 444 7 0.0000000000000000e+00 4.2285000000000004e+00 1.0256300000000000e+01 0.0000000000000000e+00 0 0 0
6675 444 7 -6.2500000000000000e-02 1.6907700000000001e+00 8.7911099999999998e+00 7.1781899999999998e+00 0 0 0
6676 444 7 -6.2500000000000000e-02 4.2285500000000003e+00 1.0256300000000000e+01 7.1781600000000001e+00 0 0 0
6677 444 7 0.0000000000000000e+00 2.5366499999999998e+00 1.0256300000000000e+01 2.3926400000000001e+00 0 0 0
6678 444 7 0.0000000000000000e+00 5.0744199999999999e+00 8.7911099999999998e+00 2.3926400000000001e+00 0 0 0
6679 444 7 0.0000000000000000e+00 8.4509000000000001e-01 1.0256300000000000e+01 4.7824499999999999e+00 0 0 0
6680 444 7 0.0000000000000000e+00 3.3828700000000000e+00 8.7911099999999998e+00 4.7824400000000002e+00 0 0 0
5917 444 2 -8.2999999999999996e-01 4.0835853638630670e+00 8.3251752701498152e+00 1.0999960739869763e+01 -2 1 0
4669 444 2 -8.2999999999999996e-01 2.2334068439410051e+00 1.0029362543015402e+01 1.3519077544089308e+01 1 -2 0
4670 444 1 4.1499999999999998e-01 2.9272852411753885e+00 9.4063139290320361e+00 1.3303265023848617e+01 1 -2 0
5024 444 1 4.1499999999999998e-01 1.5926213371187181e+00 1.0564297811374720e+01 1.0777971420387420e+01 -1 -3 0
5919 444 1 4.1499999999999998e-01 3.5106673754786555e+00 9.0808607835631836e+00 1.0869821391594746e+01 -2 1 0
5023 444 2 -8.2999999999999996e-01 2.1916714111461104e+00 9.9957208996929978e+00 1.0294141739238192e+01 -1 -3 0
5025 444 1 4.1499999999999998e-01 2.4621233110860130e+00 1.0518803539314616e+01 9.5395079433936196e+00 -1 -3 0
4671 444 1 4.1499999999999998e-01 2.6882917106658466e+00 1.0862894576196894e+01 1.3639642985988649e+01 1 -2 0
342 444 6 2.9999999999999999e-02 4.9906783957084722e+00 9.9424378416420520e+00 1.5883143175728796e+01 3 0 0
6114 444 1 4.1499999999999998e-01 5.3637679221100121e-01 9.4945190987139316e+00 1.2879907850931305e+01 -2 -4 0
5225 444 1 4.1499999999999998e-01 1.6797843852673553e+00 9.2890305140870719e+00 1.5203964844233548e+01 3 -3 0
3716 444 1 4.1499999999999998e-01 8.5839684297095736e-02 6.7468503034072143e+00 1.5798031208965140e+01 0 1 0
3964 444 2 -8.2999999999999996e-01 5.2562312903340960e+00 7.1363661383915415e+00 1.3236930109842964e+01 -1 -2 0
5918 444 1 4.1499999999999998e-01 3.8340848317154035e+00 7.7128423803141555e+00 1.0307840978747860e+01 -2 1 0
6440 444 1 4.1499999999999998e-01 1.1019967387838967e+00 7.8468208606786725e+00 1.0050840537095882e+01 5 2 0
4298 444 1 4.1499999999999998e-01 1.7277130695167604e+00 6.0518057338598652e+00 1.4041375119257358e+01 0 1 0
780 444 1 4.1499999999999998e-01 3.9064041158223843e+00 6.1614277680373224e+00 1.3305048317249838e+01 -3 1 0
5224 444 2 -8.2999999999999996e-01 1.9446973555542155e+00 8.9702038315245094e+00 1.6066752482437103e+01 3 -3 0
6439 444 2 -8.2999999999999996e-01 5.5507276060552324e-01 7.2479335760186752e+00 1.0559210511629914e+01 5 2 0
3966 444 1 4.1499999999999998e-01 4.9428186435774508e+00 7.7202684023127794e+00 1.2546232157585457e+01 -1 -2 0
4297 444 2 -8.2999999999999996e-01 7.8943479328799104e-01 5.9789742009242435e+00 1.4216193002956077e+01 0 1 0
6441 444 1 4.1499999999999998e-01 1.2235563230192897e-01 7.8071818570621980e+00 1.1204368709042678e+01 5 2 0
4299 444 1 4.1499999999999998e-01 3.9082615392841119e-01 5.8837809516876005e+00 1.3351160489641877e+01 0 1 0
1359 444 1 4.1499999999999998e-01 1.7109844269605379e-01 7.2055436502475363e+00 1.9362711201839353e+01 6 0 0
2721 444 1 4.1499999999999998e-01 2.2304705822475865e-01 7.1878627909539130e+00 2.3249078791780367e+01 6 -1 0
5623 444 2 -8.2999999999999996e-01 1.2398324862337951e+00 1.1339497990275669e+01 2.3154043303771964e+01 3 -7 0
1628 444 1 4.1499999999999998e-01 2.3240100813890994e+00 6.8040055056438939e+00 1.8827130317905048e+01 6 0 0
820 444 2 -8.2999999999999996e-01 1.1518689584804382e+00 1.1204658928057725e+01 1.7408618418490178e+01 -2 -2 0
2094 444 1 4.1499999999999998e-01 4.2298841334973858e+00 7.9399674614000118e+00 1.7851625026295785e+01 2 1 0
1804 444 2 -8.2999999999999996e-01 4.9473483395378119e+00 7.4635938757657181e+00 2.1168151202139921e+01 -4 0 0
1806 444 1 4.1499999999999998e-01 4.8538924188594734e+00 8.3745948005935027e+00 2.1446676074255148e+01 -4 0 0
2645 444 1 4.1499999999999998e-01 5.6042609186956165e+00 9.9587190402505463e+00 2.2446254885824956e+01 -3 -2 0
5226 444 1 4.1499999999999998e-01 1.2015695997251854e+00 8.4474843015053072e+00 1.6368012002245560e+01 3 -3 0
2093 444 1 4.1499999999999998e-01 2.9152564166376527e+00 8.5531825136726489e+00 1.7418477258647119e+01 2 1 0
2092 444 2 -8.2999999999999996e-01 3.2952643343833956e+00 7.9508452630464861e+00 1.8058021267706696e+01 2 1 0
6078 444 1 4.1499999999999998e-01 3.6434564202009092e+00 8.7156249242738948e+00 2.2744920420510987e+01 5 0 0
6077 444 1 4.1499999999999998e-01 2.9192108509278016e+00 7.4248234912142088e+00 2.2426807807533933e+01 5 0 0
822 444 1 4.1499999999999998e-01 1.5916595758534711e+00 1.0423683750098105e+01 1.7072620433501239e+01 -2 -2 0
5624 444 1 4.1499999999999998e-01 1.2218461191846464e+00 1.0795399792108007e+01 2.2366727930636952e+01 3 -7 0
2646 444 1 4.1499999999999998e-01 4.2755752464556966e+00 1.0650170457532619e+01 2.2666219662072454e+01 -3 -2 0
6076 444 2 -8.2999999999999996e-01 2.9993368851289079e+00 8.1021288068562836e+00 2.3098424900892319e+01 5 0 0
1627 444 2 -8.2999999999999996e-01 1.8119008545996174e+00 6.1486075326167722e+00 1.9300870235215715e+01 6 0 0
1805 444 1 4.1499999999999998e-01 5.1702437994353190e+00 7.5184133270219515e+00 2.0238880242793197e+01 -4 0 0
2644 444 2 -8.2999999999999996e-01 4.6758235437519176e+00 9.9039598083014333e+00 2.2219898228363000e+01 -3 -2 0
346 444 6 2.9999999999999999e-02 5.6687383185860067e+00 1.1280718737840465e+01 1.8000942607150858e+01 3 0 0
1945 444 2 -8.2999999999999996e-01 2.5530524576083824e+00 7.8349839174013987e+00 2.5722474864268253e+01 1 -4 0
5808 444 1 4.1499999999999998e-01 1.8947538454748560e-03 8.7737466433803686e+00 2.7450459189314397e+01 0 3 0
3453 444 1 4.1499999999999998e-01 2.6144308453883536e+00 6.8775491460954932e+00 3.2483648343158059e+01 -1 2 0
4451 444 1 4.1499999999999998e-01 4.8389472701811531e+00 1.0252959686066964e+01 2.6802011910189677e+01 0 2 0
4518 444 1 4.1499999999999998e-01 1.3250140753654083e+00 1.1070528141277444e+01 3.1540735404348762e+01 -3 1 0
5806 444 2 -8.2999999999999996e-01 8.9610761559969598e-01 9.0305690515341599e+00 2.7675531336466896e+01 0 3 0
5744 444 1 4.1499999999999998e-01 4.3823300531327165e+00 7.8811283237090306e+00 2.9860940885084620e+01 -1 1 0
1947 444 1 4.1499999999999998e-01 2.7086569780699428e+00 8.1490081911599308e+00 2.4831740405715134e+01 1 -4 0
2457 444 1 4.1499999999999998e-01 4.2110584951010299e+00 8.3280037815341625e+00 2.6409888887793386e+01 1 2 0
2373 444 1 4.1499999999999998e-01 4.7414049316854889e-01 8.0425907892164545e+00 2.9094368711329444e+01 4 1 0
4354 444 2 -8.2999999999999996e-01 2.7571097924546280e+00 8.6420889850382121e+00 3.2428822296446477e+01 -1 -3 0
2455 444 2 -8.2999999999999996e-01 5.0275404340662364e+00 8.5208703396073453e+00 2.6870748502914097e+01 1 2 0
3523 444 2 -8.2999999999999996e-01 4.8513944542444349e+00 9.6222551815677893e+00 3.0958183924682459e+01 2 -1 0
3524 444 1 4.1499999999999998e-01 5.2070106705383061e+00 1.0504879966538859e+01 3.1061834434137488e+01 2 -1 0
4450 444 2 -8.2999999999999996e-01 4.9688595043083605e+00 1.1161754970857896e+01 2.7073022319246427e+01 0 2 0
5807 444 1 4.1499999999999998e-01 1.4258066059652330e+00 8.7266563735316822e+00 2.6938450662306295e+01 0 3 0
4356 444 1 4.1499999999999998e-01 2.2715504135170477e+00 9.4645843631514506e+00 3.2491793180359366e+01 -1 -3 0
4355 444 1 4.1499999999999998e-01 3.3463758123212859e+00 8.7676164418640106e+00 3.1685021050576484e+01 -1 -3 0
5743 444 2 -8.2999999999999996e-01 4.5039247243224336e+00 6.9373145336073083e+00 2.9757681492408533e+01 -1 1 0
2456 444 1 4.1499999999999998e-01 5.5493163600219928e+00 7.7237172259810860e+00 2.6778397811166716e+01 1 2 0
4516 444 2 -8.2999999999999996e-01 1.6653461591866541e+00 1.1072429836476012e+01 3.2435388096073645e+01 -3 1 0
5512 444 2 -8.2999999999999996e-01 6.6221176777795210e-01 1.0986448323962028e+01 2.9740240276984828e+01 2 -1 0
2371 444 2 -8.2999999999999996e-01 1.1082323717894087e-01 7.3647166355864462e+00 2.9664210496051528e+01 4 1 0
5514 444 1 4.1499999999999998e-01 6.5137706600493228e-01 1.0309799597043206e+01 2.9063290527698356e+01 2 -1 0
2372 444 1 4.1499999999999998e-01 6.5187587628262411e-01 6.5934782656678852e+00 2.9494841529908982e+01 4 1 0
1946 444 1 4.1499999999999998e-01 2.2675434602177473e+00 6.9282049829465571e+00 2.5610812655036455e+01 1 -4 0
3525 444 1 4.1499999999999998e-01 5.6161690500280752e+00 9.0484606158059400e+00 3.1004143875980791e+01 2 -1 0
5745 444 1 4.1499999999999998e-01 5.4535038974174821e+00 6.8169170340920457e+00 2.9751687947568247e+01 -1 1 0
3361 444 2 -8.2999999999999996e-01 2.5808374386417001e+00 8.6441369669591630e+00 3.6672380004260468e+01 -2 0 0
2297 444 1 4.1499999999999998e-01 5.0039353978025840e+00 6.0310292634327567e+00 3.6559495977742486e+01 -2 0 0
2296 444 2 -8.2999999999999996e-01 4.6913586611598381e+00 6.9296008819735606e+00 3.6664843155152823e+01 -2 0 0
2564 444 1 4.1499999999999998e-01 1.3123889531182571e+00 9.3325805250723004e+00 3.7843324405491742e+01 3 1 0
2563 444 2 -8.2999999999999996e-01 5.1271417207341596e-01 9.8371333380656054e+00 3.7992252549241115e+01 3 1 0
3362 444 1 4.1499999999999998e-01 2.8015634386330572e+00 9.1625919295415788e+00 3.5898612368300256e+01 -2 0 0
1664 444 1 4.1499999999999998e-01 3.7315650198347643e+00 9.0929442510088840e+00 3.3647028571029949e+01 -1 -5 0
2330 444 1 4.1499999999999998e-01 2.9733129097798355e-01 1.1236648851538403e+01 3.7023366367566332e+01 1 4 0
4517 444 1 4.1499999999999998e-01 8.9379074697640715e-01 1.0938916645858013e+01 3.2985941631920120e+01 -3 1 0
1663 444 2 -8.2999999999999996e-01 3.9474474886983133e+00 9.3741643107070143e+00 3.4536153575507790e+01 -1 -5 0
3363 444 1 4.1499999999999998e-01 3.3787590959644502e+00 8.1527910900359490e+00 3.6867654481964593e+01 -2 0 0
1665 444 1 4.1499999999999998e-01 4.3299524356608083e+00 1.0244712411741922e+01 3.4426296722754394e+01 -1 -5 0
3493 444 2 -8.2999999999999996e-01 8.6956024504220286e-01 6.7548193548994417e+00 3.5470534769691326e+01 5 6 0
2298 444 1 4.1499999999999998e-01 5.4724635691312438e+00 7.4290555243555749e+00 3.6902860851084782e+01 -2 0 0
3495 444 1 4.1499999999999998e-01 1.1697812419183728e+00 7.6563625710734362e+00 3.5585944769504209e+01 5 6 0
3451 444 2 -8.2999999999999996e-01 2.5233867032415240e+00 5.9299940788636061e+00 3.2584058703521535e+01 -1 2 0
3494 444 1 4.1499999999999998e-01 1.0087751409557248e+00 6.5726243571137273e+00 3.4541203722799359e+01 5 6 0
6117 444 1 4.1499999999999998e-01 4.2293925719324417e+00 6.2704805416932876e+00 3.4972796337854653e+01 -4 0 0
6681 444 7 0.0000000000000000e+00 1.6907200000000000e+00 1.1721480000000000e+01 0.0000000000000000e+00 0 0 0
6682 444 7 0.0000000000000000e+00 4.2285000000000004e+00 1.3186669999999999e+01 0.0000000000000000e+00 0 0 0
6683 444 7 -6.2500000000000000e-02 1.6907700000000001e+00 1.1721480000000000e+01 7.1781499999999996e+00 0 0 0
6684 444 7 -6.2500000000000000e-02 4.2285500000000003e+00 1.3186669999999999e+01 7.1781499999999996e+00 0 0 0
6685 444 7 0.0000000000000000e+00 2.5366499999999998e+00 1.3186669999999999e+01 2.3926400000000001e+00 0 0 0
6686 444 7 0.0000000000000000e+00 5.0744199999999999e+00 1.1721480000000000e+01 2.3926400000000001e+00 0 0 0
6687 444 7 0.0000000000000000e+00 8.4509000000000001e-01 1.3186669999999999e+01 4.7824200000000001e+00 0 0 0
6688 444 7 0.0000000000000000e+00 3.3828600000000000e+00 1.1721480000000000e+01 4.7824499999999999e+00 0 0 0
6689 444 7 0.0000000000000000e+00 1.6907200000000000e+00 1.4651850000000000e+01 0.0000000000000000e+00 0 0 0
6691 444 7 -6.2500000000000000e-02 1.6907700000000001e+00 1.4651850000000000e+01 7.1781899999999998e+00 0 0 0
6694 444 7 0.0000000000000000e+00 5.0744199999999999e+00 1.4651850000000000e+01 2.3926400000000001e+00 0 0 0
6696 444 7 0.0000000000000000e+00 3.3828700000000000e+00 1.4651850000000000e+01 4.7824400000000002e+00 0 0 0
6690 444 7 0.0000000000000000e+00 4.2285000000000004e+00 1.6117039999999999e+01 0.0000000000000000e+00 0 0 0
6692 444 7 -6.2500000000000000e-02 4.2285500000000003e+00 1.6117039999999999e+01 7.1781600000000001e+00 0 0 0
6693 444 7 0.0000000000000000e+00 2.5366499999999998e+00 1.6117039999999999e+01 2.3926400000000001e+00 0 0 0
6695 444 7 0.0000000000000000e+00 8.4509000000000001e-01 1.6117039999999999e+01 4.7824499999999999e+00 0 0 0
2399 444 1 4.1499999999999998e-01 3.9177687362220119e+00 1.2788218124376122e+01 1.3605125180646411e+01 -2 4 0
2614 444 2 -8.2999999999999996e-01 6.7004567114291691e-01 1.2021063770880165e+01 1.1092537678403909e+01 -1 4 0
684 444 1 4.1499999999999998e-01 2.2665900672910055e+00 1.2929733685415131e+01 1.0741993678325187e+01 -3 2 0
2468 444 1 4.1499999999999998e-01 4.3933945002753410e+00 1.3441996391863890e+01 1.1873782069773560e+01 -3 1 0
3146 444 1 4.1499999999999998e-01 1.8027911069202547e+00 1.4212260610089503e+01 1.6077568288000215e+01 1 3 0
1717 444 2 -8.2999999999999996e-01 3.1038968910899336e+00 1.6804911019554190e+01 1.0164354518347650e+01 -2 -1 0
2400 444 1 4.1499999999999998e-01 3.1926994901564796e+00 1.2583596621494619e+01 1.4918251291248431e+01 -2 4 0
682 444 2 -8.2999999999999996e-01 3.1725350603025548e+00 1.3171043041839273e+01 1.0548948408117502e+01 -3 2 0
1718 444 1 4.1499999999999998e-01 3.3743051404298203e+00 1.5904135019498915e+01 9.9862705883048157e+00 -2 -1 0
683 444 1 4.1499999999999998e-01 3.2141659449442987e+00 1.3202078665072376e+01 9.5931578159435471e+00 -3 2 0
1719 444 1 4.1499999999999998e-01 2.7824247934706721e+00 1.7129706203230043e+01 9.3232863363605301e+00 -2 -1 0
3600 444 1 4.1499999999999998e-01 1.5607391770853712e-01 1.5643330683430641e+01 1.5133247442435019e+01 1 -2 0
2615 444 1 4.1499999999999998e-01 2.7132159780326337e-01 1.2096492033882086e+01 1.1959464956232313e+01 -1 4 0
2398 444 2 -8.2999999999999996e-01 3.4340150354455279e+00 1.2133502164862563e+01 1.4108674725693220e+01 -2 4 0
5284 444 2 -8.2999999999999996e-01 2.3058533417288913e+00 1.7550576253663792e+01 1.2773847000556035e+01 3 2 0