LAMMPS data file via write_data, version 11 Aug 2017, timestep = 5000000

7584 atoms
7 atom types
4480 bonds
5 bond types
2780 angles
3 angle types
900 dihedrals
2 dihedral types

0.0000000000000000e+00 4.5679949999999998e+01 xlo xhi
0.0000000000000000e+00 4.6885919999999999e+01 ylo yhi
0.0000000000000000e+00 6.5000000000000000e+01 zlo zhi

Masses

1 1.0079
2 15.9994
3 22.9898
4 15.9994
5 12.011
6 1.0079
7 107.868

Angle Coeffs # harmonic

1 50 109.471
2 50 104.51
3 55 104.52

Dihedral Coeffs # charmm

1 0.111111 3 0 0
2 0.333333 3 0 0

Atoms # full

6433 444 7 0.0000000000000000e+00 1.6907200000000000e+00 0.0000000000000000e+00 0.0000000000000000e+00 0 0 0
6434 444 7 0.0000000000000000e+00 4.2285000000000004e+00 1.4651900000000000e+00 0.0000000000000000e+00 0 0 0
6435 444 7 -4.1669999999999999e-02 1.6907700000000001e+00 0.0000000000000000e+00 7.1781499999999996e+00 0 0 0
6436 444 7 -4.1669999999999999e-02 4.2285500000000003e+00 1.4651900000000000e+00 7.1781499999999996e+00 0 0 0
6437 444 7 0.0000000000000000e+00 2.5366499999999998e+00 1.4651900000000000e+00 2.3926400000000001e+00 0 0 0
6438 444 7 0.0000000000000000e+00 5.0744199999999999e+00 0.0000000000000000e+00 2.3926400000000001e+00 0 0 0
6439 444 7 0.0000000000000000e+00 8.4509000000000001e-01 1.4651900000000000e+00 4.7824200000000001e+00 0 0 0
6440 444 7 0.0000000000000000e+00 3.3828600000000000e+00 0.0000000000000000e+00 4.7824499999999999e+00 0 0 0
6441 444 7 0.0000000000000000e+00 1.6907200000000000e+00 2.9303699999999999e+00 0.0000000000000000e+00 0 0 0
6442 444 7 0.0000000000000000e+00 4.2285000000000004e+00 4.3955599999999997e+00 0.0000000000000000e+00 0 0 0
6443 444 7 -4.1669999999999999e-02 1.6907700000000001e+00 2.9303699999999999e+00 7.1781899999999998e+00 0 0 0
6444 444 7 -4.1669999999999999e-02 4.2285500000000003e+00 4.3955599999999997e+00 7.1781600000000001e+00 0 0 0
6445 444 7 0.0000000000000000e+00 2.5366499999999998e+00 4.3955599999999997e+00 2.3926400000000001e+00 0 0 0
6446 444 7 0.0000000000000000e+00 5.0744199999999999e+00 2.9303699999999999e+00 2.3926400000000001e+00 0 0 0
6447 444 7 0.0000000000000000e+00 8.4509000000000001e-01 4.3955599999999997e+00 4.7824499999999999e+00 0 0 0
6448 444 7 0.0000000000000000e+00 3.3828700000000000e+00 2.9303699999999999e+00 4.7824400000000002e+00 0 0 0
6449 444 7 0.0000000000000000e+00 1.6907200000000000e+00 5.8607399999999998e+00 0.0000000000000000e+00 0 0 0
6450 444 7 0.0000000000000000e+00 4.2285000000000004e+00 7.3259299999999996e+00 0.0000000000000000e+00 0 0 0
6451 444 7 -4.1669999999999999e-02 1.6907700000000001e+00 5.8607399999999998e+00 7.1781499999999996e+00 0 0 0
6452 444 7 -4.1669999999999999e-02 4.2285500000000003e+00 7.3259299999999996e+00 7.1781499999999996e+00 0 0 0
6453 444 7 0.0000000000000000e+00 2.5366499999999998e+00 7.3259299999999996e+00 2.3926400000000001e+00 0 0 0
6454 444 7 0.0000000000000000e+00 5.0744199999999999e+00 5.8607399999999998e+00 2.3926400000000001e+00 0 0 0
6455 444 7 0.0000000000000000e+00 8.4509000000000001e-01 7.3259299999999996e+00 4.7824200000000001e+00 0 0 0
6456 444 7 0.0000000000000000e+00 3.3828600000000000e+00 5.8607399999999998e+00 4.7824499999999999e+00 0 0 0
6561 444 7 0.0000000000000000e+00 6.7662699999999996e+00 0.0000000000000000e+00 0.0000000000000000e+00 0 0 0
6562 444 7 0.0000000000000000e+00 9.3040500000000002e+00 1.4651900000000000e+00 0.0000000000000000e+00 0 0 0
6563 444 7 -4.1669999999999999e-02 6.7663200000000003e+00 0.0000000000000000e+00 7.1781499999999996e+00 0 0 0
6564 444 7 -4.1669999999999999e-02 9.3041000000000000e+00 1.4651900000000000e+00 7.1781499999999996e+00 0 0 0
6565 444 7 0.0000000000000000e+00 7.6121999999999996e+00 1.4651900000000000e+00 2.3926400000000001e+00 0 0 0
6566 444 7 0.0000000000000000e+00 1.0149970000000000e+01 0.0000000000000000e+00 2.3926400000000001e+00 0 0 0
6567 444 7 0.0000000000000000e+00 5.9206399999999997e+00 1.4651900000000000e+00 4.7824200000000001e+00 0 0 0
6568 444 7 0.0000000000000000e+00 8.4584100000000007e+00 0.0000000000000000e+00 4.7824499999999999e+00 0 0 0
6569 444 7 0.0000000000000000e+00 6.7662699999999996e+00 2.9303699999999999e+00 0.0000000000000000e+00 0 0 0
6570 444 7 0.0000000000000000e+00 9.3040500000000002e+00 4.3955599999999997e+00 0.0000000000000000e+00 0 0 0
6571 444 7 -4.1669999999999999e-02 6.7663200000000003e+00 2.9303699999999999e+00 7.1781899999999998e+00 0 0 0
6572 444 7 -4.1669999999999999e-02 9.3041000000000000e+00 4.3955599999999997e+00 7.1781600000000001e+00 0 0 0
6573 444 7 0.0000000000000000e+00 7.6121999999999996e+00 4.3955599999999997e+00 2.3926400000000001e+00 0 0 0
6574 444 7 0.0000000000000000e+00 1.0149970000000000e+01 2.9303699999999999e+00 2.3926400000000001e+00 0 0 0
6575 444 7 0.0000000000000000e+00 5.9206399999999997e+00 4.3955599999999997e+00 4.7824499999999999e+00 0 0 0
6576 444 7 0.0000000000000000e+00 8.4584200000000003e+00 2.9303699999999999e+00 4.7824400000000002e+00 0 0 0
6695 444 7 0.0000000000000000e+00 1.0996190000000000e+01 1.4651900000000000e+00 4.7824200000000001e+00 0 0 0
6703 444 7 0.0000000000000000e+00 1.0996190000000000e+01 4.3955599999999997e+00 4.7824499999999999e+00 0 0 0
6577 444 7 0.0000000000000000e+00 6.7662699999999996e+00 5.8607399999999998e+00 0.0000000000000000e+00 0 0 0
6578 444 7 0.0000000000000000e+00 9.3040500000000002e+00 7.3259299999999996e+00 0.0000000000000000e+00 0 0 0
6579 444 7 -4.1669999999999999e-02 6.7663200000000003e+00 5.8607399999999998e+00 7.1781499999999996e+00 0 0 0
6580 444 7 -4.1669999999999999e-02 9.3041000000000000e+00 7.3259299999999996e+00 7.1781499999999996e+00 0 0 0
6581 444 7 0.0000000000000000e+00 7.6121999999999996e+00 7.3259299999999996e+00 2.3926400000000001e+00 0 0 0
6582 444 7 0.0000000000000000e+00 1.0149970000000000e+01 5.8607399999999998e+00 2.3926400000000001e+00 0 0 0
6583 444 7 0.0000000000000000e+00 5.9206399999999997e+00 7.3259299999999996e+00 4.7824200000000001e+00 0 0 0
6584 444 7 0.0000000000000000e+00 8.4584100000000007e+00 5.8607399999999998e+00 4.7824499999999999e+00 0 0 0
6711 444 7 0.0000000000000000e+00 1.0996190000000000e+01 7.3259299999999996e+00 4.7824200000000001e+00 0 0 0
4684 444 2 -8.2999999999999996e-01 5.2294724447504102e+00 2.6217547000129047e+00 1.3426490618575269e+01 -2 0 0
5455 444 2 -8.2999999999999996e-01 1.0019437875863709e+01 6.3845960153021055e+00 1.0510841628365856e+01 1 2 0
3565 444 2 -8.2999999999999996e-01 7.9178342758049922e+00 2.7516958741920665e+00 1.5093553585532741e+01 2 3 0
3567 444 1 4.1499999999999998e-01 8.7493147216225182e+00 2.4288033916652747e+00 1.5440847562123919e+01 2 3 0
4686 444 1 4.1499999999999998e-01 5.6201627319631360e+00 1.8354758790516752e+00 1.3807750341353572e+01 -2 0 0
5927 444 1 4.1499999999999998e-01 6.6922281224645195e+00 5.2894437521366680e+00 1.0385146193324337e+01 8 1 0
6341 444 1 4.1499999999999998e-01 1.0310667218373386e+01 2.7209908262100613e+00 1.0884975225806286e+01 0 4 0
2592 444 1 4.1499999999999998e-01 8.2614671276703788e+00 2.6982848561640265e+00 1.2743459581820582e+01 -2 5 0
2590 444 2 -8.2999999999999996e-01 8.2016028742432674e+00 2.3523889349212603e+00 1.1852951748259333e+01 -2 5 0
4665 444 1 4.1499999999999998e-01 3.6781824488015351e+00 2.9845169255415609e+00 1.3986125594618974e+01 4 -2 0
4664 444 1 4.1499999999999998e-01 2.3094962820401834e+00 3.5124313966113685e+00 1.3612093887679411e+01 4 -2 0
4663 444 2 -8.2999999999999996e-01 2.8901043275388094e+00 3.3776829768409482e+00 1.4361072544314384e+01 4 -2 0
6342 444 1 4.1499999999999998e-01 9.5948155838649871e+00 3.6678706328212702e+00 9.9453634490073561e+00 0 4 0
6340 444 2 -8.2999999999999996e-01 1.0374215286215639e+01 3.5932836111559578e+00 1.0496003744046273e+01 0 4 0
4521 444 1 4.1499999999999998e-01 5.9690216598658399e+00 3.4488542978095902e+00 1.0244539554833336e+01 0 8 0
4519 444 2 -8.2999999999999996e-01 5.3320788095577996e+00 2.8431574984519927e+00 1.0623574740385012e+01 0 8 0
1396 444 2 -8.2999999999999996e-01 6.2067066764737540e+00 1.7669545343082058e-01 1.4792196682388466e+01 -3 -2 0
4542 444 1 4.1499999999999998e-01 6.9306914971165270e+00 1.0638040059450449e+00 1.1200779285540964e+01 0 -4 0
2705 444 1 4.1499999999999998e-01 1.0622539052641848e+00 2.6186583840202204e+00 1.2363917160963025e+01 -1 -5 0
4685 444 1 4.1499999999999998e-01 5.6029967178125588e+00 2.6728877724806730e+00 1.2546662632980137e+01 -2 0 0
3566 444 1 4.1499999999999998e-01 7.3221827403969773e+00 2.0057945687199972e+00 1.5164707635900864e+01 2 3 0
1218 444 1 4.1499999999999998e-01 1.6445108949289102e+00 7.9572069550386382e-01 1.1699355186817538e+01 5 -2 0
4520 444 1 4.1499999999999998e-01 4.5153135368421999e+00 3.3413987142538253e+00 1.0653296291456533e+01 0 8 0
1542 444 1 4.1499999999999998e-01 1.0708303582689190e+01 4.1558441283508394e+00 1.5263354955866893e+01 4 -2 0
4922 444 1 4.1499999999999998e-01 2.1124094620902976e+00 2.2884698141758233e+00 1.0323900978470185e+01 0 1 0
4923 444 1 4.1499999999999998e-01 3.1033597241671935e+00 1.3897301154414166e+00 9.6152545493754022e+00 0 1 0
5009 444 1 4.1499999999999998e-01 2.4195126138515404e+00 4.0226270616504110e+00 1.1366482381762268e+01 2 2 0
2591 444 1 4.1499999999999998e-01 7.9739875762615027e+00 3.1111122751363323e+00 1.1315585440229331e+01 -2 5 0
5926 444 2 -8.2999999999999996e-01 7.3329126745066739e+00 4.5813441841928810e+00 1.0319178364234624e+01 8 1 0
5928 444 1 4.1499999999999998e-01 8.0070942501760936e+00 4.9217173273789259e+00 9.7310818498329432e+00 8 1 0
4541 444 1 4.1499999999999998e-01 5.9585089762890577e+00 9.1500214690582016e-01 1.0049860362015121e+01 0 -4 0
2706 444 1 4.1499999999999998e-01 3.8824837985529281e-01 3.9464646683852900e+00 1.2636942201186312e+01 -1 -5 0
1177 444 2 -8.2999999999999996e-01 7.5929262418593702e+00 5.3457822261094554e+00 1.4389016815711319e+01 -4 1 0
5571 444 1 4.1499999999999998e-01 1.1374075977256469e+01 1.8544170960097397e+00 1.5101448484514181e+01 -1 -6 0
4540 444 2 -8.2999999999999996e-01 6.4440714984016392e+00 4.0841416008520015e-01 1.0700882279522725e+01 0 -4 0
5457 444 1 4.1499999999999998e-01 1.0764464674958516e+01 6.8939136358078530e+00 1.0191838731591602e+01 1 2 0
6205 444 2 -8.2999999999999996e-01 1.0362298138019939e+01 7.7533534531472625e-01 1.1032604857069105e+01 8 3 0
2688 444 1 4.1499999999999998e-01 5.8167328118329378e+00 5.5822293376332910e+00 1.5122220816753831e+01 2 -2 0
993 444 1 4.1499999999999998e-01 1.0986016478344187e+01 9.4044501861023588e-01 1.2763339820996588e+01 1 0 0
5008 444 2 -8.2999999999999996e-01 3.1170126447709277e+00 4.3203328255934768e+00 1.0782447368512988e+01 2 2 0
1418 444 1 4.1499999999999998e-01 3.2948364088534570e+00 5.7571337555370707e+00 1.5880755321259715e+01 4 4 0
2704 444 2 -8.2999999999999996e-01 1.1800801787411181e+00 3.5628767981748117e+00 1.2259986717806147e+01 -1 -5 0
4249 444 2 -8.2999999999999996e-01 5.4190389652804649e+00 6.3508915867805680e+00 1.0919122620217207e+01 1 1 0
1178 444 1 4.1499999999999998e-01 7.6312853020094265e+00 4.4703060793226754e+00 1.4774118625026755e+01 -4 1 0
4962 444 1 4.1499999999999998e-01 8.3245096591588066e+00 6.5048859037921671e+00 1.5879887268702928e+01 -5 3 0
6206 444 1 4.1499999999999998e-01 9.4804153611863669e+00 4.3519546861746777e-01 1.1183666383202135e+01 8 3 0
5456 444 1 4.1499999999999998e-01 1.0360264870111427e+01 5.4953297289210585e+00 1.0607147023522986e+01 1 2 0
4961 444 1 4.1499999999999998e-01 9.8340436652438719e+00 6.5129658955529388e+00 1.5994504820780586e+01 -5 3 0
1179 444 1 4.1499999999999998e-01 8.0068126853049542e+00 5.2490429291865563e+00 1.3531362093960402e+01 -4 1 0
1540 444 2 -8.2999999999999996e-01 1.0821194469630143e+01 5.1049222342487379e+00 1.5211023580398750e+01 4 -2 0
1417 444 2 -8.2999999999999996e-01 2.3846822699117882e+00 6.0367169016661100e+00 1.5782339668449172e+01 4 4 0
2686 444 2 -8.2999999999999996e-01 5.0692443763399737e+00 5.1889751712338343e+00 1.5572603673564046e+01 2 -2 0
4921 444 2 -8.2999999999999996e-01 2.4593071676163873e+00 1.3963408134630129e+00 1.0323339890652605e+01 0 1 0
2687 444 1 4.1499999999999998e-01 5.0398951616511809e+00 4.2889468202484187e+00 1.5248073345694639e+01 2 -2 0
4960 444 2 -8.2999999999999996e-01 9.0591524365293719e+00 7.0486763237985155e+00 1.6164183857213064e+01 -5 3 0
1803 444 1 4.1499999999999998e-01 3.0638522076830370e-02 1.7603860258189333e-02 1.1255385949368208e+01 0 0 0
3057 444 1 4.1499999999999998e-01 2.5707466706858204e+00 6.9596629989299768e+00 9.5018557745751195e+00 -3 1 0
1390 444 2 -8.2999999999999996e-01 9.1094417041124243e-01 6.5959436422843227e+00 1.3149372982381315e+01 -1 -5 0
1541 444 1 4.1499999999999998e-01 1.1280280550283619e+01 5.2467074802024314e+00 1.4383153120132501e+01 4 -2 0
1253 444 1 4.1499999999999998e-01 1.9761168735602250e+00 3.4783074227170636e+00 1.5723396879028083e+01 -3 -2 0
4251 444 1 4.1499999999999998e-01 4.6728760454966070e+00 5.7791582860076760e+00 1.1099661791094913e+01 1 1 0
1391 444 1 4.1499999999999998e-01 4.4294387690356013e-01 5.9883116183680851e+00 1.3722078683623158e+01 -1 -5 0
5010 444 1 4.1499999999999998e-01 3.0914878003747237e+00 5.2751237726136289e+00 1.0845333090920571e+01 2 2 0
4250 444 1 4.1499999999999998e-01 5.0384933615449548e+00 7.1096082697759835e+00 1.0476667389289972e+01 1 1 0
2475 444 1 4.1499999999999998e-01 4.7408244504953680e+00 7.4237165401808607e+00 1.4897139978271586e+01 4 -1 0
1419 444 1 4.1499999999999998e-01 2.1348538469306981e+00 5.7373414962060894e+00 1.4908158708801974e+01 4 4 0
1224 444 1 4.1499999999999998e-01 1.0930277191193898e+01 7.3528932642294400e+00 1.3247351101741355e+01 -5 3 0
5569 444 2 -8.2999999999999996e-01 1.0790666452614275e+01 2.2546143916571073e+00 1.5746203147849878e+01 -1 -6 0
1217 444 1 4.1499999999999998e-01 1.3054005415741887e+00 2.6240028293237022e-01 1.3075025560462308e+01 5 -2 0
3476 444 1 4.1499999999999998e-01 6.9768023784550248e+00 7.2744640920299863e+00 1.0878615776685365e+01 -4 -2 0
991 444 2 -8.2999999999999996e-01 1.1390794860771818e+01 5.9603373569511620e-01 1.3559435284973336e+01 1 0 0
1216 444 2 -8.2999999999999996e-01 9.4754741654781016e-01 7.8220651632055771e-01 1.2355321089952335e+01 5 -2 0
3055 444 2 -8.2999999999999996e-01 2.8412412328414756e+00 7.0580653382769878e+00 1.0414753338465268e+01 -3 1 0
1392 444 1 4.1499999999999998e-01 2.9698834672177066e-01 6.7757879049300938e+00 1.2437371141649090e+01 -1 -5 0
3477 444 1 4.1499999999999998e-01 8.4666324231219985e+00 7.3687280535351336e+00 1.0626788448662197e+01 -4 -2 0
6207 444 1 4.1499999999999998e-01 1.0881241511644479e+01 3.9909213843891339e-03 1.0804662138870826e+01 8 3 0
1223 444 1 4.1499999999999998e-01 9.9030984905130168e+00 7.6569335208659917e+00 1.4317098378073341e+01 -5 3 0
4139 444 1 4.1499999999999998e-01 1.8698099800743589e-01 2.0387631466885803e+00 1.6387697773178097e+01 -2 2 0
1958 444 1 4.1499999999999998e-01 2.7399987531596710e+00 1.6679081870464896e+00 1.6690160946878308e+01 2 0 0
1957 444 2 -8.2999999999999996e-01 2.6864915995877388e+00 7.1402194549920095e-01 1.6631253482631632e+01 2 0 0
189 444 5 1.4000000000000001e-01 1.0633524676925978e+00 5.6706895827353394e+00 2.2161230058883383e+01 3 -1 0
1151 444 1 4.1499999999999998e-01 1.8386075858081639e+00 8.2701244739320390e-01 2.2965395812304642e+01 -1 -1 0
5279 444 1 4.1499999999999998e-01 9.0591324138780909e+00 7.2325896762944153e-01 2.0336615267598944e+01 -2 0 0
1880 444 1 4.1499999999999998e-01 9.2076812783636637e+00 1.1486443900679559e+00 2.2818145802825619e+01 -2 2 0
1252 444 2 -8.2999999999999996e-01 1.6218123424302147e+00 3.3819184335611068e+00 1.6607371510645383e+01 -3 -2 0
1254 444 1 4.1499999999999998e-01 8.8616367592375545e-01 3.9935136097198298e+00 1.6639072678548008e+01 -3 -2 0
946 444 2 -8.2999999999999996e-01 2.8300470033470653e+00 3.1812321634714580e-01 2.0731069257595255e+01 -2 -2 0
181 444 4 -4.0000000000000002e-01 2.6238391144126920e+00 5.9545984840956603e+00 2.0469765362332438e+01 3 -1 0
316 444 6 2.9999999999999999e-02 7.0702281435337753e+00 3.8312692506623054e+00 1.7519855839662256e+01 2 -1 0
313 444 6 2.9999999999999999e-02 8.1036187410716352e+00 6.0176217359401019e+00 1.8291373777007355e+01 2 -1 0
2481 444 1 4.1499999999999998e-01 1.4599252473531601e+00 2.5880468822554077e+00 1.8359246981479934e+01 5 -2 0
197 444 6 2.9999999999999999e-02 3.6386163154013969e+00 4.5850599562766297e+00 1.9142943992802596e+01 3 -1 0
322 444 6 2.9999999999999999e-02 4.3717125031464850e+00 2.5201852528737221e+00 2.0621761571729142e+01 2 -1 0
300 444 5 1.4000000000000001e-01 7.6830040417979735e+00 3.7285317039214823e+00 1.8393620198520988e+01 2 -1 0
318 444 6 2.9999999999999999e-02 4.1134216822691005e+00 3.9052435438053688e+00 2.2713335476494478e+01 2 -1 0
291 444 4 -4.0000000000000002e-01 7.0831774093705020e+00 4.8042329526772498e+00 2.3340503571454150e+01 2 -1 0
303 444 5 1.4000000000000001e-01 5.4553841503757354e+00 2.5186535172463826e+00 2.0937412775964450e+01 2 -1 0
324 444 3 1.0000000000000000e+00 8.1337667934292348e+00 3.3881596157996983e+00 2.1649264625799749e+01 2 -1 0
293 444 4 -4.0000000000000002e-01 5.7942503034886368e+00 3.8838954654929414e+00 2.1388814819275542e+01 2 -1 0
302 444 5 1.4000000000000001e-01 6.3529800770297076e+00 2.2778046016405629e+00 1.9696344243844948e+01 2 -1 0
301 444 5 1.4000000000000001e-01 4.9740967777866549e+00 4.4300216122007416e+00 2.2467725217610013e+01 2 -1 0
292 444 4 -4.0000000000000002e-01 6.8939721356109995e+00 3.6511664034952207e+00 1.9570832624227027e+01 2 -1 0
323 444 6 2.9999999999999999e-02 5.6723244942191160e+00 1.7447489149452950e+00 2.1758635010608955e+01 2 -1 0
320 444 6 2.9999999999999999e-02 7.0453207286494521e+00 1.4621924001169624e+00 1.9869364217854010e+01 2 -1 0
321 444 6 2.9999999999999999e-02 5.7714020151430940e+00 2.1241640875623529e+00 1.8785513274917204e+01 2 -1 0
2479 444 2 -8.2999999999999996e-01 1.4956304427113187e+00 1.9771362254129923e+00 1.9095280414328528e+01 5 -2 0
196 444 6 2.9999999999999999e-02 2.5351817331294115e+00 5.7876727659699876e+00 1.8381169074728628e+01 3 -1 0
200 444 6 2.9999999999999999e-02 5.1841983881508114e+00 6.4331309726413872e+00 1.9448954453333162e+01 3 -1 0
290 444 4 -4.0000000000000002e-01 8.8853029165827575e+00 4.9015182101788435e+00 1.9923250511987696e+01 2 -1 0
186 444 5 1.4000000000000001e-01 3.2428535086441150e+00 5.6271439885789194e+00 1.9224417287535644e+01 3 -1 0
317 444 6 2.9999999999999999e-02 8.3150822476348445e+00 2.8339977647367824e+00 1.8391190902089136e+01 2 -1 0
298 444 5 1.4000000000000001e-01 8.5989538156704093e+00 4.9693731261510701e+00 1.8517710385096436e+01 2 -1 0
289 444 4 -4.0000000000000002e-01 9.0857257735446559e+00 5.3461668241059686e+00 2.2383494641055094e+01 2 -1 0
1879 444 2 -8.2999999999999996e-01 8.3493600956261478e+00 1.4247434611659813e+00 2.3139527671923140e+01 -2 2 0
198 444 6 2.9999999999999999e-02 1.7946867644712206e+00 4.0096267959000089e+00 2.0958112748597390e+01 3 -1 0
188 444 5 1.4000000000000001e-01 4.2827472828447535e+00 6.6577991306728919e+00 1.8899076473003596e+01 3 -1 0
299 444 5 1.4000000000000001e-01 5.7682676072677959e+00 4.4393073669815006e+00 2.3726132712390715e+01 2 -1 0
319 444 6 2.9999999999999999e-02 4.7269052406942320e+00 5.4272974743879319e+00 2.2304887119778567e+01 2 -1 0
1881 444 1 4.1499999999999998e-01 8.2388782194973391e+00 9.5262399135228215e-01 2.3964833184385423e+01 -2 2 0
312 444 6 2.9999999999999999e-02 9.5337872627641325e+00 4.8707249169751536e+00 1.7952389865378297e+01 2 -1 0
296 444 5 1.4000000000000001e-01 1.0004614187725908e+01 5.7780119687919447e+00 2.0242420725613478e+01 2 -1 0
187 444 5 1.4000000000000001e-01 1.5672768529832484e+00 5.0247166263129861e+00 2.0849875696627283e+01 3 -1 0
294 444 5 1.4000000000000001e-01 1.0283579053149190e+01 5.7315722396079991e+00 2.1715935825460644e+01 2 -1 0
5278 444 2 -8.2999999999999996e-01 9.4665184332911227e+00 1.5579164744688883e+00 2.0568165116849421e+01 -2 0 0
5280 444 1 4.1499999999999998e-01 1.0273623342685976e+01 1.5818061084464952e+00 2.0054119561718512e+01 -2 0 0
295 444 5 1.4000000000000001e-01 9.4423493553419640e+00 4.9045317626492393e+00 2.3715872188289872e+01 2 -1 0
947 444 1 4.1499999999999998e-01 2.3845798679897303e+00 1.0214075184208933e+00 2.0258647645844363e+01 -2 -2 0
199 444 6 2.9999999999999999e-02 7.3741437784667774e-01 5.0916381475254981e+00 2.0144534399254681e+01 3 -1 0
1150 444 2 -8.2999999999999996e-01 1.3222129155425657e+00 1.4432777928384033e+00 2.3484804922615027e+01 -1 -1 0
203 444 6 2.9999999999999999e-02 1.5299806922970072e+00 5.2129919772992928e+00 2.2950966307673884e+01 3 -1 0
4530 444 1 4.1499999999999998e-01 7.7982315505422246e+00 6.7692544765350231e+00 2.0977346011342917e+01 -3 -1 0
2480 444 1 4.1499999999999998e-01 5.7970572447986990e-01 1.8367551017730166e+00 1.9335294861334191e+01 5 -2 0
201 444 6 2.9999999999999999e-02 4.5094473905754668e+00 6.5971836147425948e+00 1.7807446962107399e+01 3 -1 0
304 444 6 2.9999999999999999e-02 1.1142634230749474e+01 5.0267544071907428e+00 2.1924509458512624e+01 2 -1 0
305 444 6 2.9999999999999999e-02 1.0565754393921777e+01 6.6889464442970636e+00 2.2075574653030625e+01 2 -1 0
307 444 6 2.9999999999999999e-02 9.8877610960594726e+00 3.9375059869917597e+00 2.3818839170525877e+01 2 -1 0
306 444 6 2.9999999999999999e-02 1.0043633077078603e+01 5.6396537697965483e+00 2.4282560515653650e+01 2 -1 0
1152 444 1 4.1499999999999998e-01 1.9207710538876850e+00 2.1692009387785434e+00 2.3660862936447295e+01 -1 -1 0
308 444 6 2.9999999999999999e-02 9.8516501782812238e+00 6.8122972946902811e+00 1.9844531173301576e+01 2 -1 0
315 444 6 2.9999999999999999e-02 5.8037659036616480e+00 3.4175204796314143e+00 2.4137541652760405e+01 2 -1 0
202 444 6 2.9999999999999999e-02 7.5817680899401500e-03 5.6169258618621400e+00 2.2308518856403431e+01 3 -1 0
1959 444 1 4.1499999999999998e-01 3.2390979006946266e+00 3.9805701483836647e-01 1.7346113159915753e+01 2 0 0
309 444 6 2.9999999999999999e-02 1.0905974455777503e+01 5.5017078117055034e+00 1.9693501033199496e+01 2 -1 0
183 444 4 -4.0000000000000002e-01 1.5682196161853685e+00 7.0128535195833841e+00 2.2025719532635517e+01 3 -1 0
2831 444 1 4.1499999999999998e-01 1.5329883185078010e+00 7.2568202421387804e+00 1.6947186460087675e+01 -4 5 0
216 444 3 1.0000000000000000e+00 1.1242683576609724e+00 7.7210976839772423e+00 1.9880355218772955e+01 3 -1 0
5570 444 1 4.1499999999999998e-01 1.1168835484315153e+01 2.0162683594106534e+00 1.6592614446127676e+01 -1 -6 0
207 444 6 2.9999999999999999e-02 6.7059394941652606e-01 7.3769428083652029e+00 2.3971104981026130e+01 3 -1 0
4528 444 2 -8.2999999999999996e-01 7.5451090940214565e+00 7.6920340955319286e+00 2.0952071912035148e+01 -3 -1 0
2360 444 1 4.1499999999999998e-01 4.8798883760636125e+00 7.4674435322648716e+00 2.2241344557932731e+01 2 6 0
2830 444 2 -8.2999999999999996e-01 9.9346912609817806e-01 7.7897161864920648e+00 1.7531286469601078e+01 -4 5 0
3486 444 1 4.1499999999999998e-01 2.7549948182363391e+00 4.0246944448887778e-01 3.1803482276803461e+01 1 1 0
5546 444 1 4.1499999999999998e-01 2.6078876440036663e-01 3.4987337312028846e+00 3.1486713834414065e+01 -2 1 0
6230 444 1 4.1499999999999998e-01 4.9593152988154818e+00 6.3728917703018073e-01 2.7029462088290501e+01 -5 0 0
3690 444 1 4.1499999999999998e-01 8.9104562637840579e-01 1.1950166588703270e+00 2.5300426449387665e+01 2 6 0
5375 444 1 4.1499999999999998e-01 7.8007666075742472e+00 5.3385258599491570e-01 2.7480401992436750e+01 -2 1 0
5374 444 2 -8.2999999999999996e-01 8.1284170535924147e+00 1.0912646210332309e+00 2.6774591186416359e+01 -2 1 0
314 444 6 2.9999999999999999e-02 5.3747926339346099e+00 5.0893879382963982e+00 2.4543523242876255e+01 2 -1 0
3689 444 1 4.1499999999999998e-01 2.1009900874133400e-01 2.2701264139326121e+00 2.6120393485640854e+01 2 6 0
297 444 5 1.4000000000000001e-01 8.0196557926025580e+00 4.8490435744519642e+00 2.4420247516897280e+01 2 -1 0
310 444 6 2.9999999999999999e-02 8.0076848055957104e+00 3.9218827441471977e+00 2.4990500398047661e+01 2 -1 0
3329 444 1 4.1499999999999998e-01 1.9732055104247812e+00 2.2253159649204766e+00 2.7525942729020386e+01 -2 5 0
3688 444 2 -8.2999999999999996e-01 6.7792435216555502e-01 1.4389529021893877e+00 2.6201151885216369e+01 2 6 0
3821 444 1 4.1499999999999998e-01 8.7697504965645940e+00 1.0723903344621382e+00 3.1245656412102857e+01 -1 0 0
311 444 6 2.9999999999999999e-02 7.8587088913278933e+00 5.6988454118392058e+00 2.5014833512595207e+01 2 -1 0
3820 444 2 -8.2999999999999996e-01 8.8023516002617548e+00 1.6998665024201303e+00 3.0523546517712060e+01 -1 0 0
2561 444 1 4.1499999999999998e-01 9.2058204761177613e+00 3.7661136686244068e+00 3.1065517440431844e+01 -2 -3 0
6254 444 1 4.1499999999999998e-01 9.8200163366991102e+00 7.2761342844756625e+00 2.7782926785556540e+01 2 1 0
2893 444 2 -8.2999999999999996e-01 1.1033001067536798e+01 7.4559054140504992e+00 3.0725702963405375e+01 2 3 0
3953 444 1 4.1499999999999998e-01 7.7107057002475594e+00 6.0617667536652480e+00 2.9567727538216722e+01 -2 0 0
5421 444 1 4.1499999999999998e-01 8.0289278950977270e+00 7.2791208590557828e+00 3.1970053770891038e+01 3 6 0
5376 444 1 4.1499999999999998e-01 8.1194629313293269e+00 1.9747927976769160e+00 2.7142734723851319e+01 -2 1 0
6080 444 1 4.1499999999999998e-01 4.0223726067346171e+00 1.7290153646776092e+00 2.8803152524798278e+01 7 -3 0
6253 444 2 -8.2999999999999996e-01 9.9668134174715881e+00 6.5012772014056113e+00 2.8325401653504635e+01 2 1 0
6081 444 1 4.1499999999999998e-01 4.2407792240075297e+00 3.8387911259605578e-01 2.9462547862357226e+01 7 -3 0
5394 444 1 4.1499999999999998e-01 4.1723758691498967e+00 1.7653441980099076e+00 2.4631450059032012e+01 2 0 0
5392 444 2 -8.2999999999999996e-01 3.4524843458985917e+00 2.3492830054545006e+00 2.4870205357030866e+01 2 0 0
3822 444 1 4.1499999999999998e-01 9.7364457990788367e+00 1.8498564576433352e+00 3.0377934202509906e+01 -1 0 0
3954 444 1 4.1499999999999998e-01 6.6528036503160966e+00 6.3185808987076824e+00 2.8515689028503452e+01 -2 0 0
4787 444 1 4.1499999999999998e-01 5.8538512671096825e+00 5.3898071517403290e+00 3.1016475598237694e+01 3 0 0
2460 444 1 4.1499999999999998e-01 3.3416524100544267e+00 5.0207356322875274e+00 2.5947788929658785e+01 -2 4 0
2179 444 2 -8.2999999999999996e-01 1.2669441346011761e+00 4.8265093080008530e+00 2.8706962167692051e+01 3 4 0
2180 444 1 4.1499999999999998e-01 3.2604790268744221e-01 4.6850849497388749e+00 2.8602339870049970e+01 3 4 0
3328 444 2 -8.2999999999999996e-01 2.7828322120339815e+00 2.5552460562810029e+00 2.7915665010898149e+01 -2 5 0
3803 444 1 4.1499999999999998e-01 6.5823721489504150e+00 2.0931772968227667e+00 3.1172353956807772e+01 7 -4 0
2459 444 1 4.1499999999999998e-01 2.2272918690836585e+00 5.3158749158847662e+00 2.6929108836350995e+01 -2 4 0
2458 444 2 -8.2999999999999996e-01 2.8465983577871810e+00 5.7418924980596806e+00 2.6336486951129846e+01 -2 4 0
1176 444 1 4.1499999999999998e-01 7.8068648572106971e+00 4.1748536227497315e+00 2.8364759215372583e+01 1 0 0
1174 444 2 -8.2999999999999996e-01 8.1007274253189578e+00 3.3204858830342916e+00 2.8048638155756016e+01 1 0 0
1175 444 1 4.1499999999999998e-01 8.3816108457752403e+00 2.8564174349379901e+00 2.8837293247556037e+01 1 0 0
3952 444 2 -8.2999999999999996e-01 7.0397751727284295e+00 5.6217684945773208e+00 2.9045725044319795e+01 -2 0 0
5393 444 1 4.1499999999999998e-01 3.3618810034728179e+00 2.2437573584955195e+00 2.5817246916174259e+01 2 0 0
3802 444 2 -8.2999999999999996e-01 5.6852742905089491e+00 2.4216281547805698e+00 3.1232086672467204e+01 7 -4 0
3804 444 1 4.1499999999999998e-01 5.2496555401590417e+00 2.0726286924156923e+00 3.0454482447263121e+01 7 -4 0
2181 444 1 4.1499999999999998e-01 1.3395984837990143e+00 5.4069305639532192e+00 2.9464632996333624e+01 3 4 0
733 444 2 -8.2999999999999996e-01 1.1956261199521114e+00 6.8261588945230480e+00 3.1102981619128567e+01 4 1 0
3330 444 1 4.1499999999999998e-01 2.5704964327875603e+00 3.4469699766537527e+00 2.8191300029641639e+01 -2 5 0
735 444 1 4.1499999999999998e-01 7.9839262054706905e-01 6.3086673840031287e+00 3.1803438883720723e+01 4 1 0
734 444 1 4.1499999999999998e-01 1.9673623933098565e+00 7.2236143695044932e+00 3.1506323463258571e+01 4 1 0
3047 444 1 4.1499999999999998e-01 4.0868533837474006e+00 7.4368755854634090e+00 2.5904232824341200e+01 -3 1 0
2574 444 1 4.1499999999999998e-01 1.0653309306369863e+01 4.9034666079607518e+00 2.7715645522863607e+01 4 5 0
6255 444 1 4.1499999999999998e-01 1.0265735720247807e+01 6.8495270505747685e+00 2.9165401275895128e+01 2 1 0
2573 444 1 4.1499999999999998e-01 9.7865575678187309e+00 3.6842545134147882e+00 2.7482925673264109e+01 4 5 0
2562 444 1 4.1499999999999998e-01 9.7417338151500079e+00 4.2913610400626077e+00 3.2380358633082018e+01 -2 -3 0
2560 444 2 -8.2999999999999996e-01 9.5812356192288650e+00 4.5471599794892557e+00 3.1472041859614428e+01 -2 -3 0
1848 444 1 4.1499999999999998e-01 6.3183925516343287e+00 5.1548852306983334e-02 2.9115143857726782e+01 -1 0 0
2572 444 2 -8.2999999999999996e-01 1.0700079939820466e+01 3.9677613560696123e+00 2.7519431210778531e+01 4 5 0
5545 444 2 -8.2999999999999996e-01 1.3948091024944884e-01 2.6352003506564032e+00 3.1091965308190506e+01 -2 1 0
3081 444 1 4.1499999999999998e-01 1.1356943304454665e+01 1.6111130811711096e+00 3.2234029480930737e+01 -3 -1 0
2276 444 1 4.1499999999999998e-01 1.9203192834456360e+00 7.2610519378945373e+00 2.6194838446387735e+01 5 -2 0
6079 444 2 -8.2999999999999996e-01 4.6770261907154866e+00 1.0404614625095503e+00 2.8919574513199802e+01 7 -3 0
5547 444 1 4.1499999999999998e-01 7.0710346740863095e-01 2.0566550659819480e+00 3.1601201860406000e+01 -2 1 0
5420 444 1 4.1499999999999998e-01 8.8865732376174762e+00 6.1421117810625150e+00 3.2483425238913512e+01 3 6 0
1452 444 1 4.1499999999999998e-01 3.2973070198530205e+00 7.2069576029901183e+00 2.9839096272530504e+01 3 6 0
4788 444 1 4.1499999999999998e-01 4.9736739453023882e+00 4.1863862917424290e+00 3.1279080723471552e+01 3 0 0
1943 444 1 4.1499999999999998e-01 4.2425399072778367e+00 6.5222263249908927e+00 3.1559317353417402e+01 4 2 0
4786 444 2 -8.2999999999999996e-01 5.0454538494462406e+00 5.1245295949169618e+00 3.1455057580010436e+01 3 0 0