LAMMPS data file via write_data, version 11 Aug 2017, timestep = 5000000

7728 atoms
7 atom types
4640 bonds
5 bond types
3040 angles
3 angle types
1200 dihedrals
2 dihedral types

0.0000000000000000e+00 4.5679949999999998e+01 xlo xhi
0.0000000000000000e+00 4.6885919999999999e+01 ylo yhi
0.0000000000000000e+00 6.5000000000000000e+01 zlo zhi

Masses

1 1.0079
2 15.9994
3 22.9898
4 15.9994
5 12.011
6 1.0079
7 107.868

Angle Coeffs # harmonic

1 50 109.471
2 50 104.51
3 55 104.52

Dihedral Coeffs # charmm

1 0.111111 3 0 0
2 0.333333 3 0 0

Atoms # full

6577 444 7 0.0000000000000000e+00 1.6907200000000000e+00 0.0000000000000000e+00 0.0000000000000000e+00 0 0 0
6578 444 7 0.0000000000000000e+00 4.2285000000000004e+00 1.4651900000000000e+00 0.0000000000000000e+00 0 0 0
6579 444 7 -5.5559999999999998e-02 1.6907700000000001e+00 0.0000000000000000e+00 7.1781499999999996e+00 0 0 0
6580 444 7 -5.5559999999999998e-02 4.2285500000000003e+00 1.4651900000000000e+00 7.1781499999999996e+00 0 0 0
6581 444 7 0.0000000000000000e+00 2.5366499999999998e+00 1.4651900000000000e+00 2.3926400000000001e+00 0 0 0
6582 444 7 0.0000000000000000e+00 5.0744199999999999e+00 0.0000000000000000e+00 2.3926400000000001e+00 0 0 0
6583 444 7 0.0000000000000000e+00 8.4509000000000001e-01 1.4651900000000000e+00 4.7824200000000001e+00 0 0 0
6584 444 7 0.0000000000000000e+00 3.3828600000000000e+00 0.0000000000000000e+00 4.7824499999999999e+00 0 0 0
6585 444 7 0.0000000000000000e+00 1.6907200000000000e+00 2.9303699999999999e+00 0.0000000000000000e+00 0 0 0
6586 444 7 0.0000000000000000e+00 4.2285000000000004e+00 4.3955599999999997e+00 0.0000000000000000e+00 0 0 0
6587 444 7 -5.5559999999999998e-02 1.6907700000000001e+00 2.9303699999999999e+00 7.1781899999999998e+00 0 0 0
6588 444 7 -5.5559999999999998e-02 4.2285500000000003e+00 4.3955599999999997e+00 7.1781600000000001e+00 0 0 0
6589 444 7 0.0000000000000000e+00 2.5366499999999998e+00 4.3955599999999997e+00 2.3926400000000001e+00 0 0 0
6590 444 7 0.0000000000000000e+00 5.0744199999999999e+00 2.9303699999999999e+00 2.3926400000000001e+00 0 0 0
6591 444 7 0.0000000000000000e+00 8.4509000000000001e-01 4.3955599999999997e+00 4.7824499999999999e+00 0 0 0
6592 444 7 0.0000000000000000e+00 3.3828700000000000e+00 2.9303699999999999e+00 4.7824400000000002e+00 0 0 0
6593 444 7 0.0000000000000000e+00 1.6907200000000000e+00 5.8607399999999998e+00 0.0000000000000000e+00 0 0 0
6594 444 7 0.0000000000000000e+00 4.2285000000000004e+00 7.3259299999999996e+00 0.0000000000000000e+00 0 0 0
6595 444 7 -5.5559999999999998e-02 1.6907700000000001e+00 5.8607399999999998e+00 7.1781499999999996e+00 0 0 0
6596 444 7 -5.5559999999999998e-02 4.2285500000000003e+00 7.3259299999999996e+00 7.1781499999999996e+00 0 0 0
6597 444 7 0.0000000000000000e+00 2.5366499999999998e+00 7.3259299999999996e+00 2.3926400000000001e+00 0 0 0
6598 444 7 0.0000000000000000e+00 5.0744199999999999e+00 5.8607399999999998e+00 2.3926400000000001e+00 0 0 0
6599 444 7 0.0000000000000000e+00 8.4509000000000001e-01 7.3259299999999996e+00 4.7824200000000001e+00 0 0 0
6600 444 7 0.0000000000000000e+00 3.3828600000000000e+00 5.8607399999999998e+00 4.7824499999999999e+00 0 0 0
6705 444 7 0.0000000000000000e+00 6.7662699999999996e+00 0.0000000000000000e+00 0.0000000000000000e+00 0 0 0
6706 444 7 0.0000000000000000e+00 9.3040500000000002e+00 1.4651900000000000e+00 0.0000000000000000e+00 0 0 0
6707 444 7 -5.5559999999999998e-02 6.7663200000000003e+00 0.0000000000000000e+00 7.1781499999999996e+00 0 0 0
6708 444 7 -5.5559999999999998e-02 9.3041000000000000e+00 1.4651900000000000e+00 7.1781499999999996e+00 0 0 0
6709 444 7 0.0000000000000000e+00 7.6121999999999996e+00 1.4651900000000000e+00 2.3926400000000001e+00 0 0 0
6710 444 7 0.0000000000000000e+00 1.0149970000000000e+01 0.0000000000000000e+00 2.3926400000000001e+00 0 0 0
6711 444 7 0.0000000000000000e+00 5.9206399999999997e+00 1.4651900000000000e+00 4.7824200000000001e+00 0 0 0
6712 444 7 0.0000000000000000e+00 8.4584100000000007e+00 0.0000000000000000e+00 4.7824499999999999e+00 0 0 0
6713 444 7 0.0000000000000000e+00 6.7662699999999996e+00 2.9303699999999999e+00 0.0000000000000000e+00 0 0 0
6714 444 7 0.0000000000000000e+00 9.3040500000000002e+00 4.3955599999999997e+00 0.0000000000000000e+00 0 0 0
6715 444 7 -5.5559999999999998e-02 6.7663200000000003e+00 2.9303699999999999e+00 7.1781899999999998e+00 0 0 0
6716 444 7 -5.5559999999999998e-02 9.3041000000000000e+00 4.3955599999999997e+00 7.1781600000000001e+00 0 0 0
6717 444 7 0.0000000000000000e+00 7.6121999999999996e+00 4.3955599999999997e+00 2.3926400000000001e+00 0 0 0
6718 444 7 0.0000000000000000e+00 1.0149970000000000e+01 2.9303699999999999e+00 2.3926400000000001e+00 0 0 0
6719 444 7 0.0000000000000000e+00 5.9206399999999997e+00 4.3955599999999997e+00 4.7824499999999999e+00 0 0 0
6720 444 7 0.0000000000000000e+00 8.4584200000000003e+00 2.9303699999999999e+00 4.7824400000000002e+00 0 0 0
6839 444 7 0.0000000000000000e+00 1.0996190000000000e+01 1.4651900000000000e+00 4.7824200000000001e+00 0 0 0
6847 444 7 0.0000000000000000e+00 1.0996190000000000e+01 4.3955599999999997e+00 4.7824499999999999e+00 0 0 0
6721 444 7 0.0000000000000000e+00 6.7662699999999996e+00 5.8607399999999998e+00 0.0000000000000000e+00 0 0 0
6722 444 7 0.0000000000000000e+00 9.3040500000000002e+00 7.3259299999999996e+00 0.0000000000000000e+00 0 0 0
6723 444 7 -5.5559999999999998e-02 6.7663200000000003e+00 5.8607399999999998e+00 7.1781499999999996e+00 0 0 0
6724 444 7 -5.5559999999999998e-02 9.3041000000000000e+00 7.3259299999999996e+00 7.1781499999999996e+00 0 0 0
6725 444 7 0.0000000000000000e+00 7.6121999999999996e+00 7.3259299999999996e+00 2.3926400000000001e+00 0 0 0
6726 444 7 0.0000000000000000e+00 1.0149970000000000e+01 5.8607399999999998e+00 2.3926400000000001e+00 0 0 0
6727 444 7 0.0000000000000000e+00 5.9206399999999997e+00 7.3259299999999996e+00 4.7824200000000001e+00 0 0 0
6728 444 7 0.0000000000000000e+00 8.4584100000000007e+00 5.8607399999999998e+00 4.7824499999999999e+00 0 0 0
6855 444 7 0.0000000000000000e+00 1.0996190000000000e+01 7.3259299999999996e+00 4.7824200000000001e+00 0 0 0
4816 444 2 -8.2999999999999996e-01 8.0182180253724233e+00 4.0287228838699098e+00 1.0617405063655355e+01 -2 3 0
4818 444 1 4.1499999999999998e-01 7.4703442644099054e+00 4.6987619409400150e+00 1.0208608924083402e+01 -2 3 0
4817 444 1 4.1499999999999998e-01 8.9144415600822668e+00 4.3372710116197348e+00 1.0483932790485875e+01 -2 3 0
1426 444 2 -8.2999999999999996e-01 2.1335694188977619e+00 3.9443723527777568e+00 1.0257146337726063e+01 0 -4 0
1428 444 1 4.1499999999999998e-01 2.9456747268749912e+00 4.4506964675041685e+00 1.0275931015649078e+01 0 -4 0
3894 444 1 4.1499999999999998e-01 4.9492897997036502e+00 6.1670954633561408e+00 1.0226054862440341e+01 1 3 0
4848 444 1 4.1499999999999998e-01 3.6002469829193990e+00 7.0296530782842206e+00 1.2185286496726690e+01 2 1 0
792 444 1 4.1499999999999998e-01 7.6116249335858441e+00 4.1955305949541302e+00 1.4370271435414635e+01 2 2 0
4847 444 1 4.1499999999999998e-01 2.3688745650486269e+00 6.7710605850677865e+00 1.1343415353152615e+01 2 1 0
4846 444 2 -8.2999999999999996e-01 3.3251479837184079e+00 6.7394289793879327e+00 1.1315618409931812e+01 2 1 0
791 444 1 4.1499999999999998e-01 7.2164293258085586e+00 2.7352514207545240e+00 1.4312818436217743e+01 2 2 0
5049 444 1 4.1499999999999998e-01 5.3020816947352198e+00 4.1621967312850225e+00 1.4215354259611397e+01 3 3 0
5048 444 1 4.1499999999999998e-01 4.2219999512902966e+00 5.1185265662041539e+00 1.3756276404712082e+01 3 3 0
4950 444 1 4.1499999999999998e-01 3.8388705291513014e+00 1.8272404709834611e+00 1.0897165677657677e+01 0 4 0
1859 444 1 4.1499999999999998e-01 8.9484609980743510e+00 1.1339679566785288e+00 9.6683465903660135e+00 -2 -6 0
3893 444 1 4.1499999999999998e-01 5.8714934736519391e+00 6.0710132955508476e+00 1.1422801868862074e+01 1 3 0
3892 444 2 -8.2999999999999996e-01 5.8543285330474673e+00 5.9739849693422071e+00 1.0470687078006998e+01 1 3 0
3284 444 1 4.1499999999999998e-01 9.0885467777462523e+00 5.0968623723148632e+00 1.5546006739750565e+01 2 1 0
4948 444 2 -8.2999999999999996e-01 3.1781310229331141e+00 1.1384981206792621e+00 1.0824436474723029e+01 0 4 0
3285 444 1 4.1499999999999998e-01 9.8487859841911618e+00 5.3519252434230609e+00 1.4261921723619345e+01 2 1 0
6562 444 2 -8.2999999999999996e-01 7.9662237260742694e+00 7.6541096350649571e+00 1.0286435236818560e+01 -1 -2 0
2199 444 1 4.1499999999999998e-01 6.5242062611072553e+00 2.9388933051935875e+00 1.0411911842916918e+01 3 -2 0
4949 444 1 4.1499999999999998e-01 2.3657995011019741e+00 1.6050426318640925e+00 1.0627749490466472e+01 0 4 0
2197 444 2 -8.2999999999999996e-01 5.6465194403578778e+00 2.5598227613908211e+00 1.0364966287769517e+01 3 -2 0
3283 444 2 -8.2999999999999996e-01 8.9684525217186462e+00 5.3723055510066597e+00 1.4637194206885349e+01 2 1 0
4677 444 1 4.1499999999999998e-01 1.0580768517850171e+01 4.7483941665271399e+00 9.4668007626672726e+00 -2 2 0
2198 444 1 4.1499999999999998e-01 5.3042763318668946e+00 2.8509172204340807e+00 9.5197647263697220e+00 3 -2 0
5151 444 1 4.1499999999999998e-01 2.2775979071593917e+00 6.7992365605203950e+00 1.3675258671784638e+01 3 3 0
5149 444 2 -8.2999999999999996e-01 2.9339187367354418e+00 7.0860049234760032e+00 1.4310270291338524e+01 3 3 0
4675 444 2 -8.2999999999999996e-01 1.0541925212442397e+01 4.8137801639984579e+00 1.0420974660556718e+01 -2 2 0
3033 444 1 4.1499999999999998e-01 3.0214659948107045e+00 3.5767738672443667e+00 1.3316194396187603e+01 -2 -2 0
1487 444 1 4.1499999999999998e-01 6.5413097330402581e-01 6.2465492522606132e+00 1.5880678629884430e+01 5 -6 0
2369 444 1 4.1499999999999998e-01 5.7933811341256378e+00 8.5871718290008059e-01 1.0336747676512365e+01 -5 -1 0
1858 444 2 -8.2999999999999996e-01 9.1690462680011855e+00 1.4228631615819261e+00 1.0553848531304967e+01 -2 -6 0
5273 444 1 4.1499999999999998e-01 9.3423785150823040e+00 6.3112574194346116e-01 1.5441665223169812e+01 2 0 0
3929 444 1 4.1499999999999998e-01 8.3910166469892662e+00 1.4699846840715787e+00 1.2902886151778473e+01 0 7 0
2667 444 1 4.1499999999999998e-01 3.4358884973574484e+00 3.0491550442345408e+00 1.5289723037760961e+01 -4 -1 0
3928 444 2 -8.2999999999999996e-01 8.8378671756049165e+00 1.3366361015538386e+00 1.3738813649330677e+01 0 7 0
3930 444 1 4.1499999999999998e-01 9.6883947685876795e+00 1.7612113048807680e+00 1.3626690339389471e+01 0 7 0
790 444 2 -8.2999999999999996e-01 6.8919817174918308e+00 3.5975929340373392e+00 1.4572304435596772e+01 2 2 0
1427 444 1 4.1499999999999998e-01 1.4777584427123458e+00 4.5550348656457951e+00 9.9206417657458150e+00 0 -4 0
3032 444 1 4.1499999999999998e-01 2.2479049537923634e+00 3.5813544101103183e+00 1.2014857357470715e+01 -2 -2 0
1860 444 1 4.1499999999999998e-01 8.6707543917522809e+00 2.2313109823396826e+00 1.0673638849682082e+01 -2 -6 0
2665 444 2 -8.2999999999999996e-01 3.2814289211690322e+00 2.1934146515683395e+00 1.5689827565633008e+01 -4 -1 0
2666 444 1 4.1499999999999998e-01 3.1664767749849090e+00 1.5990537286450917e+00 1.4948374139778769e+01 -4 -1 0
5047 444 2 -8.2999999999999996e-01 4.3582823377513025e+00 4.3156403223790640e+00 1.4259300137938263e+01 3 3 0
4872 444 1 4.1499999999999998e-01 1.1076319941269560e+01 6.3986012174084843e+00 1.2919395813526798e+01 6 -3 0
2456 444 1 4.1499999999999998e-01 8.3546753733035928e+00 6.9766457705919018e+00 1.4618296623932242e+01 3 -1 0
5593 444 2 -8.2999999999999996e-01 9.5194526161276205e-01 6.2214060977833130e+00 1.2765508547515383e+01 3 0 0
3031 444 2 -8.2999999999999996e-01 2.1989765048313457e+00 3.2843254629060272e+00 1.2923489296562387e+01 -2 -2 0
4676 444 1 4.1499999999999998e-01 1.1227560960225713e+01 5.4424695990167677e+00 1.0646552445225684e+01 -2 2 0
5344 444 2 -8.2999999999999996e-01 4.4513889949077712e-01 1.2225211101555982e+00 1.4149088901148987e+01 0 3 0
6462 444 1 4.1499999999999998e-01 9.3877747596634826e+00 7.4859757133637155e+00 1.1340725848645185e+01 1 4 0
1488 444 1 4.1499999999999998e-01 2.1621923444404003e+00 6.3159343091267361e+00 1.5767399377185887e+01 5 -6 0
1486 444 2 -8.2999999999999996e-01 1.4575315368384845e+00 5.8491746020567659e+00 1.6216644728167452e+01 5 -6 0
5595 444 1 4.1499999999999998e-01 1.0124442282023240e+00 5.2768922355662982e+00 1.2908565432433955e+01 3 0 0
5346 444 1 4.1499999999999998e-01 4.3573578069641394e-01 1.6793204621432576e+00 1.4990206195166163e+01 0 3 0
6563 444 1 4.1499999999999998e-01 7.2332193228757022e+00 7.0397969676814371e+00 1.0246985906681481e+01 -1 -2 0
1571 444 1 4.1499999999999998e-01 1.0043465486041812e+01 2.3298128385233860e-01 1.1445349737713345e+01 2 -3 0
1402 444 2 -8.2999999999999996e-01 5.8411842066353579e+00 6.8889939410893302e+00 1.3143417002227853e+01 -3 1 0
5345 444 1 4.1499999999999998e-01 9.2850219579664595e-01 1.8062262148850825e+00 1.3564383180647443e+01 0 3 0
1403 444 1 4.1499999999999998e-01 5.5501002647052022e+00 7.2950854503488420e+00 1.3959867610179071e+01 -3 1 0
5594 444 1 4.1499999999999998e-01 3.0789193769989259e-01 6.3170951197189682e+00 1.2063888451624504e+01 3 0 0
1404 444 1 4.1499999999999998e-01 6.7773085291636654e+00 7.0837382738523056e+00 1.3098945310208691e+01 -3 1 0
6460 444 2 -8.2999999999999996e-01 1.0207164374508492e+01 7.7291766655960146e+00 1.1771638435567045e+01 1 4 0
5902 444 2 -8.2999999999999996e-01 9.0670078954161895e+00 4.6636357699192821e-01 2.2869727577259777e+01 1 -4 0
1043 444 1 4.1499999999999998e-01 5.5418291999362843e+00 4.1172226050276167e-01 2.3867526191697269e+01 -3 -4 0
1373 444 1 4.1499999999999998e-01 3.9017580583776135e+00 1.3573094479790653e+00 2.1823437452800931e+01 -1 0 0
1374 444 1 4.1499999999999998e-01 2.7417794055988201e+00 8.1561901700928541e-01 2.2631469717085572e+01 -1 0 0
5379 444 1 4.1499999999999998e-01 1.8285758136527178e-01 7.5452671511883542e+00 1.7887996138704253e+01 -1 4 0
2521 444 2 -8.2999999999999996e-01 9.9250033250554059e-01 1.9043066166824718e+00 1.6978506676483359e+01 3 7 0
2727 444 1 4.1499999999999998e-01 4.6303789304911094e+00 1.7243918149732196e+00 1.9145614555997835e+01 1 2 0
2522 444 1 4.1499999999999998e-01 1.8582317278144826e+00 1.8061231563107858e+00 1.6582146987888351e+01 3 7 0
2725 444 2 -8.2999999999999996e-01 4.4345307784305730e+00 1.7411699245628709e+00 2.0082414297425867e+01 1 2 0
5343 444 1 4.1499999999999998e-01 6.0032190856265375e+00 2.3427998740063058e+00 1.7393320732896520e+01 -3 1 0
1452 444 1 4.1499999999999998e-01 6.3928236439925286e+00 1.1746237495617418e+00 2.0480839593475334e+01 -3 -6 0
4256 444 1 4.1499999999999998e-01 3.7181723062706702e+00 2.6970597226557902e+00 2.3740828389929820e+01 -3 -4 0
2643 444 1 4.1499999999999998e-01 1.6864760241818899e+00 2.3414775956075933e+00 1.9534440110389539e+01 -1 0 0
2642 444 1 4.1499999999999998e-01 1.4406269958568314e+00 9.2748254896550397e-01 2.0016178148627194e+01 -1 0 0
3559 444 2 -8.2999999999999996e-01 1.8159352578904779e+00 4.2800920227840429e+00 1.8484986285758790e+01 -3 -2 0
965 444 1 4.1499999999999998e-01 3.4037731030265199e+00 7.2535295178050143e+00 2.0843047224291738e+01 2 -2 0
2641 444 2 -8.2999999999999996e-01 1.2765808349942331e+00 1.8432053590578976e+00 2.0241506291909541e+01 -1 0 0
1923 444 1 4.1499999999999998e-01 1.0032346400051487e+01 1.0147959313415629e+00 1.7951157930601454e+01 7 2 0
5639 444 1 4.1499999999999998e-01 1.5828919098593275e+00 2.0666760047031389e+00 2.3232751284329911e+01 2 0 0
6226 444 2 -8.2999999999999996e-01 9.1852781645577579e+00 5.8741391690195437e+00 2.1097581817044276e+01 -5 -1 0
1921 444 2 -8.2999999999999996e-01 1.0077226776255412e+01 1.0440190241223490e+00 1.8906858522393474e+01 7 2 0
1922 444 1 4.1499999999999998e-01 9.8065497554259178e+00 1.6956484475897352e-01 1.9186672186012515e+01 7 2 0
5638 444 2 -8.2999999999999996e-01 7.2342584004352939e-01 2.1646057070597711e+00 2.2822922535087958e+01 2 0 0
6360 444 1 4.1499999999999998e-01 9.7636788705641742e+00 2.6575610372190615e+00 2.0332494217853288e+01 1 2 0
6358 444 2 -8.2999999999999996e-01 9.1119231514393224e+00 3.2669323034277928e+00 2.0679068300031332e+01 1 2 0
2726 444 1 4.1499999999999998e-01 3.9989427133825677e+00 2.5820915884077622e+00 2.0221502291951897e+01 1 2 0
1473 444 1 4.1499999999999998e-01 4.8490974413849219e+00 5.9950292848498234e+00 1.8314373632950481e+01 4 4 0
6359 444 1 4.1499999999999998e-01 8.2723372051586406e+00 2.9122487979317100e+00 2.0386617462722182e+01 1 2 0
6228 444 1 4.1499999999999998e-01 9.1201868290435986e+00 4.9210863529925613e+00 2.1036875164968144e+01 -5 -1 0
1471 444 2 -8.2999999999999996e-01 4.6907434229322922e+00 5.2252236468483204e+00 1.8860775624839732e+01 4 4 0
1884 444 1 4.1499999999999998e-01 2.6720136652084925e+00 5.8286998114119273e+00 2.2802248587562779e+01 -4 3 0
6542 444 1 4.1499999999999998e-01 6.7286386133531044e+00 3.7256324514212413e+00 2.2950163533700312e+01 3 2 0
3561 444 1 4.1499999999999998e-01 1.5657116692564030e+00 4.7767563038211200e+00 1.7705919812969192e+01 -3 -2 0
1882 444 2 -8.2999999999999996e-01 2.0958764951313067e+00 5.7264301414751513e+00 2.3559770614064007e+01 -4 3 0
964 444 2 -8.2999999999999996e-01 3.1598585581406269e+00 6.3982197053085086e+00 2.1196858679723668e+01 2 -2 0
6541 444 2 -8.2999999999999996e-01 7.4504267674662907e+00 3.1075501434099735e+00 2.3065182093445063e+01 3 2 0
6543 444 1 4.1499999999999998e-01 7.7957144942866590e+00 2.9748291055658296e+00 2.2182349278615938e+01 3 2 0
966 444 1 4.1499999999999998e-01 3.6076733060330328e+00 5.7683256544223660e+00 2.0632122413701044e+01 2 -2 0
3560 444 1 4.1499999999999998e-01 2.6255594537164360e+00 4.6941679001166285e+00 1.8783786682719516e+01 -3 -2 0
4624 444 2 -8.2999999999999996e-01 9.1427562137392258e+00 5.3685910371159826e+00 1.7336812336530631e+01 3 1 0
1184 444 1 4.1499999999999998e-01 1.2226411307796421e+00 6.2305773570031366e+00 2.0657315346128911e+01 4 -2 0
1883 444 1 4.1499999999999998e-01 2.4621579148612858e+00 4.9847846325897454e+00 2.4041467437330127e+01 -4 3 0
1361 444 1 4.1499999999999998e-01 9.2148463181682843e+00 6.5286260769378313e+00 2.2921890342967796e+01 -4 2 0
4626 444 1 4.1499999999999998e-01 9.9530541411736753e+00 5.3811684217940883e+00 1.7846215415601414e+01 3 1 0
1472 444 1 4.1499999999999998e-01 5.2719508684088527e+00 4.5537538621027274e+00 1.8503622894423213e+01 4 4 0
1183 444 2 -8.2999999999999996e-01 4.1990372241341356e-01 6.7517626310473560e+00 2.0671831598989304e+01 4 -2 0
4203 444 1 4.1499999999999998e-01 5.8022389261603609e+00 5.3089443504993339e+00 2.1551475548458054e+01 1 -1 0
4202 444 1 4.1499999999999998e-01 5.4448745625150741e+00 5.6743117612366047e+00 2.2976499239240777e+01 1 -1 0
4201 444 2 -8.2999999999999996e-01 5.6983299498733349e+00 4.9335301225290547e+00 2.2425831806074285e+01 1 -1 0
1407 444 1 4.1499999999999998e-01 1.3938515446444979e+00 7.2649958351054345e+00 2.3332781826874786e+01 4 1 0
5640 444 1 4.1499999999999998e-01 8.5194866284799864e-01 1.8679222291404178e+00 2.1921982833297214e+01 2 0 0
6227 444 1 4.1499999999999998e-01 9.9249503645585335e+00 6.1005638807776776e+00 2.0533801056408436e+01 -5 -1 0
4625 444 1 4.1499999999999998e-01 8.9734107973106649e+00 6.2882771992138480e+00 1.7132529321445858e+01 3 1 0
4863 444 1 4.1499999999999998e-01 6.7736664797266499e+00 3.8306107210360496e+00 1.6272944447480096e+01 -1 0 0
4862 444 1 4.1499999999999998e-01 7.5936764547942612e+00 4.0722719090576360e+00 1.7522376023441687e+01 -1 0 0
4861 444 2 -8.2999999999999996e-01 6.6927249750423448e+00 3.9659494833604745e+00 1.7217065727338948e+01 -1 0 0
4257 444 1 4.1499999999999998e-01 4.7116033880023060e+00 3.8358933551312515e+00 2.3651119851661420e+01 -3 -4 0
1169 444 1 4.1499999999999998e-01 7.9895382477870687e+00 7.1478637168470884e+00 2.1335178791628962e+01 1 0 0
1359 444 1 4.1499999999999998e-01 1.1828409201566814e+00 4.8781138349288106e-01 1.8077159477016448e+01 4 -2 0
5904 444 1 4.1499999999999998e-01 8.6310661966785531e+00 6.5065604457272974e-01 2.2037727758340939e+01 1 -4 0
2523 444 1 4.1499999999999998e-01 1.0564423717695590e+00 2.7047862876467277e+00 1.7499443802523647e+01 3 7 0
1372 444 2 -8.2999999999999996e-01 3.4841463719471220e+00 1.4177047958114108e+00 2.2682614220982806e+01 -1 0 0
5342 444 1 4.1499999999999998e-01 4.6666024020829191e+00 1.9567552671350499e+00 1.6796394412514221e+01 -3 1 0
649 444 2 -8.2999999999999996e-01 1.1236763520174486e+01 5.8390162408764565e+00 1.9364573648200199e+01 -2 4 0
5341 444 2 -8.2999999999999996e-01 5.2645031688987665e+00 1.7460862068191163e+00 1.7513587592055245e+01 -3 1 0
2518 444 2 -8.2999999999999996e-01 4.6270963947974053e+00 7.6259590431947011e+00 1.7283309429799100e+01 4 2 0
1450 444 2 -8.2999999999999996e-01 7.3053732624111083e+00 1.1655555747607722e+00 2.0769634822404541e+01 -3 -6 0
1185 444 1 4.1499999999999998e-01 3.6183024564470950e-01 7.1275380855392143e+00 1.9793393812972560e+01 4 -2 0
1362 444 1 4.1499999999999998e-01 7.8916869902488749e+00 6.7357059711938865e+00 2.3627767537678782e+01 -4 2 0
1360 444 2 -8.2999999999999996e-01 8.8252185859944365e+00 6.9361393425031412e+00 2.3695424956372733e+01 -4 2 0
4255 444 2 -8.2999999999999996e-01 3.9715938419867634e+00 3.5158140398130522e+00 2.4167033435382777e+01 -3 -4 0
1044 444 1 4.1499999999999998e-01 6.6262366372768957e+00 1.4540293058641869e+00 2.4039432233146304e+01 -3 -4 0
5272 444 2 -8.2999999999999996e-01 9.2327961264815261e+00 4.9718243939975726e-01 1.6383091529399241e+01 2 0 0
2953 444 2 -8.2999999999999996e-01 5.9264462155775695e+00 7.1534466572787210e+00 2.3892871390631758e+01 -1 4 0
1042 444 2 -8.2999999999999996e-01 6.3950866736706402e+00 5.5595852262914092e-01 2.4276646753729736e+01 -3 -4 0
4977 444 1 4.1499999999999998e-01 1.0957658281302390e+01 1.3754586295245226e+00 2.2463708968722802e+01 -1 4 0
2955 444 1 4.1499999999999998e-01 6.2867587631999440e+00 7.7980435354331021e+00 2.3283854003219489e+01 -1 4 0
5903 444 1 4.1499999999999998e-01 8.3702674296255228e+00 5.2357929875379539e-01 2.3523571154651261e+01 1 -4 0
1451 444 1 4.1499999999999998e-01 7.6899877168539179e+00 4.0958422954554075e-01 2.0326001128723291e+01 -3 -6 0
2784 444 1 4.1499999999999998e-01 1.1381269034166703e+01 5.2805729708396756e+00 2.8825530387287909e+01 3 -5 0
4244 444 1 4.1499999999999998e-01 8.6341891142607174e+00 1.1325926744654078e+00 2.6679029310993723e+01 1 -2 0
5383 444 2 -8.2999999999999996e-01 8.1424759273362675e+00 5.8539311963718654e-01 3.1182366474368219e+01 0 -3 0
4199 444 1 4.1499999999999998e-01 1.4858929389761857e+00 5.3040480237609744e+00 3.0688270120292668e+01 0 -5 0
3459 444 1 4.1499999999999998e-01 1.0801464164408634e+01 2.7902470911247437e+00 3.1122757805350318e+01 2 -3 0
5307 444 1 4.1499999999999998e-01 6.7295970411815309e-01 7.3034414263599103e+00 3.0888949098969125e+01 -2 2 0
3457 444 2 -8.2999999999999996e-01 1.1262865470742229e+01 2.6393284184181636e+00 3.0297794377719857e+01 2 -3 0
940 444 2 -8.2999999999999996e-01 3.6803918721067330e-01 3.8289630068282481e+00 2.5533231930087354e+01 0 3 0
942 444 1 4.1499999999999998e-01 5.7149407414538744e-01 3.5262424314703500e+00 2.4648247007806052e+01 0 3 0
1857 444 1 4.1499999999999998e-01 7.9225406039982573e+00 2.8071294042291415e+00 2.4864832519568520e+01 1 -4 0
1113 444 1 4.1499999999999998e-01 5.3441151438716643e+00 1.1738566493358151e+00 2.7520268970450818e+01 -1 2 0
4245 444 1 4.1499999999999998e-01 8.7985498643371667e+00 1.6417305299759912e+00 2.8095242291432626e+01 1 -2 0
2645 444 1 4.1499999999999998e-01 1.0614198157580775e+01 2.8071785437238526e+00 2.5544693510494813e+01 1 -2 0
4243 444 2 -8.2999999999999996e-01 8.5838576868672387e+00 8.5518046328661068e-01 2.7593765401888898e+01 1 -2 0
1731 444 1 4.1499999999999998e-01 1.0864989628120380e+01 7.2692549522959515e+00 2.7892932329833894e+01 0 0 0
2954 444 1 4.1499999999999998e-01 5.6950421967683624e+00 7.6612193743865662e+00 2.4670593324381656e+01 -1 4 0
4392 444 1 4.1499999999999998e-01 8.5109347239472388e+00 7.3835730402323962e+00 2.9619742956473374e+01 -3 0 0
1838 444 1 4.1499999999999998e-01 5.9974620682985973e-02 7.3009174062221236e+00 2.7455697495759516e+01 2 7 0
4198 444 2 -8.2999999999999996e-01 1.2733752309677242e+00 4.3711781428389473e+00 3.0659604740294125e+01 0 -5 0
4156 444 2 -8.2999999999999996e-01 8.0109571352406537e+00 4.1694370825361515e+00 3.1081288598330918e+01 1 -1 0
4072 444 2 -8.2999999999999996e-01 5.7288162690601450e+00 1.7445898326568587e+00 3.0510656133592885e+01 3 -5 0
823 444 2 -8.2999999999999996e-01 1.0960818341643956e+01 5.5642802956763653e+00 2.6807722047561626e+01 -1 1 0
2489 444 1 4.1499999999999998e-01 3.3839047826192949e+00 2.5817326817233468e+00 3.1904104319264551e+01 -1 2 0
5385 444 1 4.1499999999999998e-01 7.5145809237982615e+00 1.3054397255352876e+00 3.1123094766536063e+01 0 -3 0
3124 444 2 -8.2999999999999996e-01 2.8527018296458784e+00 2.7961443220338618e+00 2.8598857425792975e+01 0 -4 0
4073 444 1 4.1499999999999998e-01 5.5034492799807166e+00 8.1539101258638058e-01 3.0555734389452862e+01 3 -5 0
1112 444 1 4.1499999999999998e-01 4.5306704157515387e+00 2.3724978403698258e+00 2.7960112817270367e+01 -1 2 0
5481 444 1 4.1499999999999998e-01 5.4611840758456545e+00 6.5319097932564754e+00 3.0754083605982249e+01 5 -1 0
1856 444 1 4.1499999999999998e-01 8.5802770713653977e+00 3.6184873379006590e+00 2.5960722960375886e+01 1 -4 0
4031 444 1 4.1499999999999998e-01 1.2152644221496212e+00 2.7201708597115887e-01 3.1241531375784856e+01 6 2 0
941 444 1 4.1499999999999998e-01 1.2128599121590107e+00 4.0954172177005859e+00 2.5895878854381245e+01 0 3 0
2533 444 2 -8.2999999999999996e-01 2.7999638211683804e+00 4.5061313291113168e+00 2.6250084006648034e+01 -5 -3 0
2534 444 1 4.1499999999999998e-01 3.2707126989341240e+00 4.3225582485892939e+00 2.7063058891790924e+01 -5 -3 0
2535 444 1 4.1499999999999998e-01 3.3350544785286482e+00 4.1027169889219746e+00 2.5566588057480374e+01 -5 -3 0
4158 444 1 4.1499999999999998e-01 7.9838070050064207e+00 3.7707907342506779e+00 3.0211474941336498e+01 1 -1 0
3649 444 2 -8.2999999999999996e-01 6.8796097784832888e-01 5.4446962337470062e+00 2.7907740371709192e+01 7 1 0
3651 444 1 4.1499999999999998e-01 1.3041352018984269e+00 5.4053135582755338e+00 2.7176296182162016e+01 7 1 0
906 444 1 4.1499999999999998e-01 9.3624211020623616e+00 5.3085932294660862e+00 2.6650212514047695e+01 -2 4 0
905 444 1 4.1499999999999998e-01 8.1972861455996036e+00 5.9247525218039128e+00 2.5905428576589809e+01 -2 4 0
3650 444 1 4.1499999999999998e-01 1.0547116117699205e+00 4.8507959073395179e+00 2.8562727900588953e+01 7 1 0
904 444 2 -8.2999999999999996e-01 8.4694447480288773e+00 5.1262385445788183e+00 2.6357685994083727e+01 -2 4 0
1111 444 2 -8.2999999999999996e-01 5.4314766762037383e+00 2.0661761520978854e+00 2.7855480203127417e+01 -1 2 0
3126 444 1 4.1499999999999998e-01 3.0156763858896420e+00 2.8729151641824577e+00 2.9538951732384465e+01 0 -4 0
3221 444 1 4.1499999999999998e-01 6.8802836056938252e+00 2.8760958120113389e+00 2.8446944052618889e+01 0 6 0
3220 444 2 -8.2999999999999996e-01 7.7198623134856783e+00 3.3086400757785266e+00 2.8602655638757959e+01 0 6 0
3222 444 1 4.1499999999999998e-01 7.7856337221617649e+00 3.9625723642201587e+00 2.7906754047180460e+01 0 6 0
4143 444 1 4.1499999999999998e-01 3.3571937706141424e+00 6.1898557816844448e+00 3.1005798062949399e+01 5 0 0
4141 444 2 -8.2999999999999996e-01 2.4832857141965903e+00 6.5738259416672236e+00 3.0934500024951173e+01 5 0 0
5480 444 1 4.1499999999999998e-01 5.5908356040100262e+00 5.0500767475521648e+00 3.1035608803898473e+01 5 -1 0
4142 444 1 4.1499999999999998e-01 2.6221439262271695e+00 7.5120775245763349e+00 3.1063473068193957e+01 5 0 0
4390 444 2 -8.2999999999999996e-01 8.4781066485964818e+00 6.8002425469025098e+00 3.0377951922798257e+01 -3 0 0
3125 444 1 4.1499999999999998e-01 2.1764473179549984e+00 2.1225632368710254e+00 2.8526745482669639e+01 0 -4 0
4074 444 1 4.1499999999999998e-01 5.4202607486963004e+00 2.0248424368679920e+00 2.9648980816639394e+01 3 -5 0
4157 444 1 4.1499999999999998e-01 8.1645117803314946e+00 5.0993817120802847e+00 3.0914388088278741e+01 1 -1 0
1855 444 2 -8.2999999999999996e-01 8.6192551536874138e+00 2.7696120945299172e+00 2.5520128680057269e+01 1 -4 0
5479 444 2 -8.2999999999999996e-01 5.0279364408748242e+00 5.8059586723161170e+00 3.1202997093136172e+01 5 -1 0
2488 444 2 -8.2999999999999996e-01 2.8572003533474963e+00 2.3382341718245536e+00 3.1142840335318127e+01 -1 2 0
3458 444 1 4.1499999999999998e-01 1.0894188271278720e+01 1.8220204081981834e+00 2.9962656708429627e+01 2 -3 0
2490 444 1 4.1499999999999998e-01 2.7257512559063524e+00 1.3944854469361063e+00 3.1233900429293200e+01 -1 2 0
824 444 1 4.1499999999999998e-01 1.0912925297055823e+01 4.7914154311337178e+00 2.6245033848287026e+01 -1 1 0
4200 444 1 4.1499999999999998e-01 2.0321994149047393e+00 3.9399857893195236e+00 3.1052657929719182e+01 0 -5 0
5384 444 1 4.1499999999999998e-01 8.0095973745881466e+00 2.2258072782325550e-01 3.2058118903013671e+01 0 -3 0
4391 444 1 4.1499999999999998e-01 8.3682276589742060e+00 7.3861052839704691e+00 3.1126900270133728e+01 -3 0 0
4032 444 1 4.1499999999999998e-01 1.5977750817361307e+00 3.0589230787775534e-02 2.9796784579037812e+01 6 2 0
4790 444 1 4.1499999999999998e-01 1.3556655279096816e+00 7.2277151169952285e+00 3.8676490854166808e+01 4 -4 0
4349 444 1 4.1499999999999998e-01 5.3955480792590853e+00 5.1842008414029939e-01 3.3414262698730823e+01 3 -1 0
2025 444 1 4.1499999999999998e-01 8.0896168647527809e+00 3.7496835348597632e+00 3.2834820632514251e+01 3 -5 0
4791 444 1 4.1499999999999998e-01 1.7283156844307370e+00 7.3049504019041178e+00 3.7211205295849695e+01 4 -4 0
2263 444 2 -8.2999999999999996e-01 1.0727024442722469e+01 6.6840400083481999e+00 3.2927058077097243e+01 -3 6 0
4898 444 1 4.1499999999999998e-01 1.8937820725714059e+00 7.9471191870834546e-01 3.4122360492855847e+01 -5 0 0
5741 444 1 4.1499999999999998e-01 7.3510791081628639e+00 3.7270437729139476e+00 3.7947363698876813e+01 -1 4 0
5579 444 1 4.1499999999999998e-01 3.0923436426978728e+00 7.2445426736137719e+00 3.4282625235916008e+01 3 -1 0