LAMMPS data file via write_data, version 11 Aug 2017, timestep = 500000

7872 atoms
7 atom types
4800 bonds
5 bond types
3300 angles
3 angle types
1500 dihedrals
2 dihedral types

0.0000000000000000e+00 4.5679949999999998e+01 xlo xhi
0.0000000000000000e+00 4.6885919999999999e+01 ylo yhi
0.0000000000000000e+00 6.5000000000000000e+01 zlo zhi

Masses

1 1.0079
2 15.9994
3 22.9898
4 15.9994
5 12.011
6 1.0079
7 107.868

Angle Coeffs # harmonic

1 50 109.471
2 50 104.51
3 55 104.52

Dihedral Coeffs # charmm

1 0.111111 3 0 0
2 0.333333 3 0 0

Atoms # full

6721 444 7 0.0000000000000000e+00 1.6907200000000000e+00 0.0000000000000000e+00 0.0000000000000000e+00 0 0 0
6722 444 7 0.0000000000000000e+00 4.2285000000000004e+00 1.4651900000000000e+00 0.0000000000000000e+00 0 0 0
6723 444 7 -6.9440000000000002e-02 1.6907700000000001e+00 0.0000000000000000e+00 7.1781499999999996e+00 0 0 0
6724 444 7 -6.9440000000000002e-02 4.2285500000000003e+00 1.4651900000000000e+00 7.1781499999999996e+00 0 0 0
6725 444 7 0.0000000000000000e+00 2.5366499999999998e+00 1.4651900000000000e+00 2.3926400000000001e+00 0 0 0
6726 444 7 0.0000000000000000e+00 5.0744199999999999e+00 0.0000000000000000e+00 2.3926400000000001e+00 0 0 0
6727 444 7 0.0000000000000000e+00 8.4509000000000001e-01 1.4651900000000000e+00 4.7824200000000001e+00 0 0 0
6728 444 7 0.0000000000000000e+00 3.3828600000000000e+00 0.0000000000000000e+00 4.7824499999999999e+00 0 0 0
6729 444 7 0.0000000000000000e+00 1.6907200000000000e+00 2.9303699999999999e+00 0.0000000000000000e+00 0 0 0
6730 444 7 0.0000000000000000e+00 4.2285000000000004e+00 4.3955599999999997e+00 0.0000000000000000e+00 0 0 0
6731 444 7 -6.9440000000000002e-02 1.6907700000000001e+00 2.9303699999999999e+00 7.1781899999999998e+00 0 0 0
6732 444 7 -6.9440000000000002e-02 4.2285500000000003e+00 4.3955599999999997e+00 7.1781600000000001e+00 0 0 0
6733 444 7 0.0000000000000000e+00 2.5366499999999998e+00 4.3955599999999997e+00 2.3926400000000001e+00 0 0 0
6734 444 7 0.0000000000000000e+00 5.0744199999999999e+00 2.9303699999999999e+00 2.3926400000000001e+00 0 0 0
6735 444 7 0.0000000000000000e+00 8.4509000000000001e-01 4.3955599999999997e+00 4.7824499999999999e+00 0 0 0
6736 444 7 0.0000000000000000e+00 3.3828700000000000e+00 2.9303699999999999e+00 4.7824400000000002e+00 0 0 0
1318 444 2 -8.2999999999999996e-01 3.2641813965411304e+00 2.0043365815858003e+00 1.0212498691221032e+01 -2 -1 0
1319 444 1 4.1499999999999998e-01 3.0168851988477443e+00 2.9289495888305925e+00 1.0199529732076218e+01 -2 -1 0
1633 444 2 -8.2999999999999996e-01 2.0658471294530805e+00 4.3505561281602372e+00 1.0291297050653862e+01 4 -2 0
1493 444 1 4.1499999999999998e-01 4.2972018478824090e+00 8.2516402878023409e-01 1.3473635382353859e+01 2 1 0
1492 444 2 -8.2999999999999996e-01 4.3937631189008934e+00 1.2569028801816533e+00 1.4322463713959982e+01 2 1 0
1494 444 1 4.1499999999999998e-01 5.0041560411834185e+00 1.9756700423400824e+00 1.4158067293416522e+01 2 1 0
1634 444 1 4.1499999999999998e-01 1.3400822533182393e+00 4.4146185298799754e+00 9.6704965846208530e+00 4 -2 0
4628 444 1 4.1499999999999998e-01 4.2718187003075752e+00 1.0625310906181771e+00 1.1255150531097804e+01 2 1 0
4313 444 1 4.1499999999999998e-01 2.8466247920819856e+00 9.1954260638940954e-01 1.4880000554028889e+01 -2 1 0
4312 444 2 -8.2999999999999996e-01 2.0453529335740219e+00 7.1847957649490357e-01 1.5363497190717823e+01 -2 1 0
4627 444 2 -8.2999999999999996e-01 4.3164803275908330e+00 3.6806248820650594e-01 1.1912380074315156e+01 2 1 0
5636 444 1 4.1499999999999998e-01 2.3561394121021914e-01 2.6608508339052328e+00 1.1176418178465189e+01 -1 2 0
6279 444 1 4.1499999999999998e-01 2.0529290526435289e+00 4.0303669908719906e+00 1.4036326415925391e+01 5 -2 0
4314 444 1 4.1499999999999998e-01 2.2088101777432776e+00 1.0488472530113682e+00 1.6246883187490777e+01 -2 1 0
1635 444 1 4.1499999999999998e-01 2.6311693094474449e+00 5.0926616002375793e+00 1.0077002449818851e+01 4 -2 0
6278 444 1 4.1499999999999998e-01 2.4577152773735227e+00 5.4890393568670852e+00 1.4054172832818862e+01 5 -2 0
1320 444 1 4.1499999999999998e-01 2.9933140823114899e+00 1.6714449457574334e+00 9.3569017183853891e+00 -2 -1 0
6277 444 2 -8.2999999999999996e-01 2.0562419382065307e+00 4.8082332173552871e+00 1.4594130372128122e+01 5 -2 0
2519 444 1 4.1499999999999998e-01 3.3227513810843640e-01 5.3004254527932897e+00 1.3742391013275338e+01 0 -5 0
3456 444 1 4.1499999999999998e-01 1.8520963157239780e+00 3.6329303710303789e+00 1.1982654750684706e+01 2 -1 0
3455 444 1 4.1499999999999998e-01 2.2453506557566132e+00 2.2249574699671384e+00 1.2376177896688837e+01 2 -1 0
1263 444 1 4.1499999999999998e-01 4.4403579449147390e+00 4.6717879001087272e+00 1.2581694440135903e+01 0 -1 0
1261 444 2 -8.2999999999999996e-01 5.0853927231137659e+00 3.9860603344221306e+00 1.2754727418824924e+01 0 -1 0
3454 444 2 -8.2999999999999996e-01 1.8179722764966990e+00 3.0131584912768674e+00 1.2711319127257878e+01 2 -1 0
1262 444 1 4.1499999999999998e-01 5.6422957522234816e+00 3.9784822504253139e+00 1.1976245229315049e+01 0 -1 0
2880 444 1 4.1499999999999998e-01 5.5622766491275382e+00 3.9587666436713906e+00 1.4644982382662022e+01 -2 3 0
2304 444 1 4.1499999999999998e-01 1.1218068633084484e+00 1.2172703040587365e+00 2.0190195560817362e+01 3 1 0
2594 444 1 4.1499999999999998e-01 3.5601308351352681e+00 7.8660340496881065e-01 2.1213118996794066e+01 1 -1 0
5510 444 1 4.1499999999999998e-01 5.3266653191008928e-01 6.7288021564761236e-01 2.4005815404655955e+01 -3 -4 0
5509 444 2 -8.2999999999999996e-01 3.8544360218411622e-01 4.5495551559485586e-01 2.3085452698574709e+01 -3 -4 0
5427 444 1 4.1499999999999998e-01 5.4915624837373347e+00 2.6959060654735008e+00 1.6807827318268416e+01 5 -4 0
2546 444 1 4.1499999999999998e-01 4.3535561532654005e-01 5.4529684412449360e+00 1.8950825130050891e+01 -2 -1 0
5396 444 1 4.1499999999999998e-01 3.4940702695159866e+00 2.2184737476974008e+00 2.2909925017499951e+01 4 1 0
825 444 1 4.1499999999999998e-01 2.8921573515165542e+00 4.3374276299558501e+00 2.0441045493969323e+01 3 1 0
4825 444 2 -8.2999999999999996e-01 3.1431173881489998e+00 1.4721667375825245e+00 1.7697104861732942e+01 1 -2 0
4826 444 1 4.1499999999999998e-01 2.8329331978198882e+00 2.3664147009734471e+00 1.7554492740935675e+01 1 -2 0
1423 444 2 -8.2999999999999996e-01 2.8437121468053026e+00 4.3859703973932076e+00 1.7197674658361521e+01 -2 -1 0
1424 444 1 4.1499999999999998e-01 2.7637052013958074e+00 5.2623696043828430e+00 1.7574178949656876e+01 -2 -1 0
1425 444 1 4.1499999999999998e-01 2.5031046832233876e+00 4.4751509272717804e+00 1.6307581322064362e+01 -2 -1 0
4827 444 1 4.1499999999999998e-01 4.0973209925284193e+00 1.5413873199343953e+00 1.7666512917642095e+01 1 -2 0
823 444 2 -8.2999999999999996e-01 2.3652631414665337e+00 4.9305643561009438e+00 2.0976585605571582e+01 3 1 0
824 444 1 4.1499999999999998e-01 2.6485029387341559e+00 4.7586389728203251e+00 2.1874610548072059e+01 3 1 0
5395 444 2 -8.2999999999999996e-01 3.5315649284863073e+00 2.1022014779339480e+00 2.1960553085200541e+01 4 1 0
5397 444 1 4.1499999999999998e-01 2.6170390741052496e+00 2.1289252385138466e+00 2.1679196230825429e+01 4 1 0
1312 444 2 -8.2999999999999996e-01 4.8328861021020799e+00 4.4763540150230599e+00 1.9355584978536690e+01 -2 4 0
2302 444 2 -8.2999999999999996e-01 1.1317843443619375e+00 1.8499594771405918e+00 2.0908413394479080e+01 3 1 0
3359 444 1 4.1499999999999998e-01 1.5971272764984967e+00 2.9569059388674029e-01 1.8189383668147627e+01 -1 -1 0
2303 444 1 4.1499999999999998e-01 9.3807545741807097e-01 1.3303904561773454e+00 2.1688642111048818e+01 3 1 0
3838 444 2 -8.2999999999999996e-01 2.7602949040936795e+00 4.7451096838854099e+00 2.3620087764473134e+01 -1 1 0
1233 444 1 4.1499999999999998e-01 5.1475175326409222e+00 2.1225638834953133e+00 2.4077026951349211e+01 1 -2 0
3840 444 1 4.1499999999999998e-01 1.9109791238593954e+00 4.4272768849540052e+00 2.3926482051281816e+01 -1 1 0
5895 444 1 4.1499999999999998e-01 5.8012818065167726e-01 4.6440965753634753e+00 2.1056335681389459e+01 2 1 0
1313 444 1 4.1499999999999998e-01 4.6934001350978516e+00 4.3602891013293625e+00 1.8415741875920908e+01 -2 4 0
4388 444 1 4.1499999999999998e-01 5.6839036396091691e+00 2.9148774850092987e+00 2.2428348723268535e+01 1 -2 0
3839 444 1 4.1499999999999998e-01 2.7748922816975132e+00 5.6691655462159716e+00 2.3869366605296296e+01 -1 1 0
5894 444 1 4.1499999999999998e-01 9.7747279746286608e-02 3.4526104111330369e+00 2.0256607848692006e+01 2 1 0
2595 444 1 4.1499999999999998e-01 4.3487419634281217e+00 1.8589214373343310e-01 2.0068945165629319e+01 1 -1 0
1203 444 1 4.1499999999999998e-01 1.8728613995399268e+00 4.5231067046286977e-01 2.8366578331781252e+01 1 -1 0
1201 444 2 -8.2999999999999996e-01 1.1342862080240808e+00 1.0749176572386429e-01 2.7864742567424425e+01 1 -1 0
2736 444 1 4.1499999999999998e-01 1.9951429906938356e+00 5.2495021162336846e+00 2.7668899090674628e+01 -2 2 0
1231 444 2 -8.2999999999999996e-01 4.8741069668638630e+00 1.4929800159879749e+00 2.4744187274413719e+01 1 -2 0
3743 444 1 4.1499999999999998e-01 4.4210987005261071e+00 5.7035179967058207e+00 2.7644729320649475e+01 3 -1 0
4137 444 1 4.1499999999999998e-01 2.5071424074815667e+00 3.3599278886794712e+00 3.1248061948720583e+01 -1 0 0
948 444 1 4.1499999999999998e-01 3.6350574467414676e+00 3.5489378767589619e+00 2.6410974591896885e+01 2 -2 0
947 444 1 4.1499999999999998e-01 3.4649799786374911e+00 2.0959984076964915e+00 2.6021185212013034e+01 2 -2 0
4135 444 2 -8.2999999999999996e-01 2.7586772324797741e+00 2.4384645519864518e+00 3.1185873107594020e+01 -1 0 0
5188 444 2 -8.2999999999999996e-01 3.5365357564529951e+00 1.0552171265840062e+00 2.9060240591246771e+01 2 -2 0
2735 444 1 4.1499999999999998e-01 1.7128662478186909e+00 4.0827537274494716e+00 2.6746449461139910e+01 -2 2 0
5190 444 1 4.1499999999999998e-01 3.4519812405865720e+00 1.3451651713501693e+00 2.9968542726077789e+01 2 -2 0
2734 444 2 -8.2999999999999996e-01 1.3327931537187370e+00 4.8979170014196480e+00 2.7073993643383336e+01 -2 2 0
4136 444 1 4.1499999999999998e-01 2.7035557527421910e+00 2.1134740859045507e+00 3.2084524737018036e+01 -1 0 0
1128 444 1 4.1499999999999998e-01 1.4590115117366558e+00 2.1067459606030909e+00 2.5692211676128895e+01 3 0 0
946 444 2 -8.2999999999999996e-01 2.9913226751978295e+00 2.8408000955704029e+00 2.6391524358701432e+01 2 -2 0
5189 444 1 4.1499999999999998e-01 3.8230275800619711e+00 1.8351700200756815e+00 2.8585027138664575e+01 2 -2 0
1126 444 2 -8.2999999999999996e-01 8.6987773849398975e-01 1.3564010162207807e+00 2.5613880371854247e+01 3 0 0
1232 444 1 4.1499999999999998e-01 5.6925765380793107e+00 1.1216406741903744e+00 2.5073500084058956e+01 1 -2 0
1127 444 1 4.1499999999999998e-01 1.0137359483777129e+00 8.5361046466323520e-01 2.6415590074448438e+01 3 0 0
2412 444 1 4.1499999999999998e-01 1.0362193751134896e-02 5.5542073954753590e+00 2.4524104240436788e+01 2 1 0
2446 444 2 -8.2999999999999996e-01 5.2426224408090576e+00 4.4943579120184758e+00 2.6088836864871940e+01 1 0 0
2448 444 1 4.1499999999999998e-01 5.5863879243875036e+00 4.7050832243249232e+00 2.5220705445765802e+01 1 0 0
1797 444 1 4.1499999999999998e-01 1.8248253674972478e-01 3.3569790311949115e+00 3.8047286884546033e+01 4 -4 0
6513 444 1 4.1499999999999998e-01 3.4347940610171060e-02 4.2434734474832270e-01 3.8225268508461468e+01 2 2 0
3551 444 1 4.1499999999999998e-01 2.5561069198535091e+00 4.0322425171950088e-01 3.9696524781931345e+01 -3 2 0
1644 444 1 4.1499999999999998e-01 5.3466322092959571e+00 5.4732568562522870e+00 3.7670194364493234e+01 6 0 0
5322 444 1 4.1499999999999998e-01 3.6842069755766480e+00 2.6566292761519872e-01 3.2539545364604407e+01 -2 4 0
5346 444 1 4.1499999999999998e-01 4.0056443518024487e+00 3.4567401152972246e+00 3.8855935074922556e+01 -1 -4 0
5320 444 2 -8.2999999999999996e-01 3.2966603784642632e+00 5.9633398032698870e-01 3.3349913360365058e+01 -2 4 0
4649 444 1 4.1499999999999998e-01 4.6072602055682612e+00 2.5653504413833943e+00 3.5071363824945657e+01 0 4 0
2490 444 1 4.1499999999999998e-01 8.1081772020715065e-02 1.3218309996360649e+00 3.3306085526997869e+01 0 -2 0
3803 444 1 4.1499999999999998e-01 1.1738358325998268e+00 4.1128245527552298e+00 3.3657334037216266e+01 2 0 0
4648 444 2 -8.2999999999999996e-01 4.1814461939731871e+00 2.8970503074817340e+00 3.4280864294651408e+01 0 4 0
1266 444 1 4.1499999999999998e-01 1.2255817857707418e+00 5.5853975622748200e+00 3.8459491877451441e+01 5 4 0
6669 444 1 4.1499999999999998e-01 1.0777672402215752e+00 5.6695762801702747e+00 3.6589480259251225e+01 1 -3 0
6667 444 2 -8.2999999999999996e-01 6.8058574991180731e-01 4.8315980433436181e+00 3.6826695933227349e+01 1 -3 0
5344 444 2 -8.2999999999999996e-01 4.8544609706534887e+00 3.6977712817115784e+00 3.8484926785650487e+01 -1 -4 0
3802 444 2 -8.2999999999999996e-01 1.0361698105081150e+00 3.5350867210192405e+00 3.4408000598748394e+01 2 0 0
4650 444 1 4.1499999999999998e-01 3.8778509958303569e+00 2.1123122448914220e+00 3.3824522287976976e+01 0 4 0
6668 444 1 4.1499999999999998e-01 7.4071417860578115e-01 4.3035969701784786e+00 3.6030560684871901e+01 1 -3 0
5345 444 1 4.1499999999999998e-01 5.4820909592404590e+00 3.1312166451835224e+00 3.8933623214298230e+01 -1 -4 0
3804 444 1 4.1499999999999998e-01 1.9186308500446969e+00 3.3043511157680099e+00 3.4698269500531104e+01 2 0 0
2427 444 1 4.1499999999999998e-01 1.9269570193111007e+00 2.5321749622715610e+00 3.9305463039171343e+01 0 2 0
2426 444 1 4.1499999999999998e-01 2.1619403481825716e+00 3.9944341106551979e+00 3.9619272541889273e+01 0 2 0
2425 444 2 -8.2999999999999996e-01 2.5646871507417610e+00 3.1295067577602156e+00 3.9696266031428529e+01 0 2 0
2758 444 2 -8.2999999999999996e-01 1.9664664871013176e+00 5.7771498172788940e+00 3.2764381310097718e+01 3 -4 0
1264 444 2 -8.2999999999999996e-01 1.7423928050996920e+00 5.8410937539005925e+00 3.9223532608033025e+01 5 4 0
3552 444 1 4.1499999999999998e-01 3.6700411613864627e+00 2.4640584672460211e-01 4.0709665331896666e+01 -3 2 0
6737 444 7 0.0000000000000000e+00 1.6907200000000000e+00 5.8607399999999998e+00 0.0000000000000000e+00 0 0 0
6738 444 7 0.0000000000000000e+00 4.2285000000000004e+00 7.3259299999999996e+00 0.0000000000000000e+00 0 0 0
6739 444 7 -6.9440000000000002e-02 1.6907700000000001e+00 5.8607399999999998e+00 7.1781499999999996e+00 0 0 0
6740 444 7 -6.9440000000000002e-02 4.2285500000000003e+00 7.3259299999999996e+00 7.1781499999999996e+00 0 0 0
6741 444 7 0.0000000000000000e+00 2.5366499999999998e+00 7.3259299999999996e+00 2.3926400000000001e+00 0 0 0
6742 444 7 0.0000000000000000e+00 5.0744199999999999e+00 5.8607399999999998e+00 2.3926400000000001e+00 0 0 0
6743 444 7 0.0000000000000000e+00 8.4509000000000001e-01 7.3259299999999996e+00 4.7824200000000001e+00 0 0 0
6744 444 7 0.0000000000000000e+00 3.3828600000000000e+00 5.8607399999999998e+00 4.7824499999999999e+00 0 0 0
6745 444 7 0.0000000000000000e+00 1.6907200000000000e+00 8.7911099999999998e+00 0.0000000000000000e+00 0 0 0
6746 444 7 0.0000000000000000e+00 4.2285000000000004e+00 1.0256300000000000e+01 0.0000000000000000e+00 0 0 0
6747 444 7 -6.9440000000000002e-02 1.6907700000000001e+00 8.7911099999999998e+00 7.1781899999999998e+00 0 0 0
6748 444 7 -6.9440000000000002e-02 4.2285500000000003e+00 1.0256300000000000e+01 7.1781600000000001e+00 0 0 0
6749 444 7 0.0000000000000000e+00 2.5366499999999998e+00 1.0256300000000000e+01 2.3926400000000001e+00 0 0 0
6750 444 7 0.0000000000000000e+00 5.0744199999999999e+00 8.7911099999999998e+00 2.3926400000000001e+00 0 0 0
6751 444 7 0.0000000000000000e+00 8.4509000000000001e-01 1.0256300000000000e+01 4.7824499999999999e+00 0 0 0
6752 444 7 0.0000000000000000e+00 3.3828700000000000e+00 8.7911099999999998e+00 4.7824400000000002e+00 0 0 0
6325 444 2 -8.2999999999999996e-01 8.9585727133959470e-01 8.2616786472005064e+00 1.2458110722862381e+01 1 -1 0
4866 444 1 4.1499999999999998e-01 2.9905652952397661e+00 6.1852498060033865e+00 1.1667789535439614e+01 0 0 0
6327 444 1 4.1499999999999998e-01 6.6249636229051745e-01 8.5300755551236094e+00 1.1569438819328139e+01 1 -1 0
1316 444 1 4.1499999999999998e-01 2.3792369414467727e+00 9.5423609142565446e+00 1.2943882019345182e+01 1 2 0
6649 444 2 -8.2999999999999996e-01 2.5706179011480761e+00 1.0034876535694277e+01 1.0009927826217153e+01 3 -4 0
6650 444 1 4.1499999999999998e-01 3.2150251417299085e+00 9.9165362503855050e+00 1.0707757977560606e+01 3 -4 0
4404 444 1 4.1499999999999998e-01 3.4755575411995245e+00 9.8773540216230504e+00 1.5119603342421076e+01 -2 0 0
1315 444 2 -8.2999999999999996e-01 3.1639270750808359e+00 1.0071507243407227e+01 1.3087051306283401e+01 1 2 0
4301 444 1 4.1499999999999998e-01 1.0284140093124583e+00 8.5888566458278124e+00 1.5710261472025131e+01 6 -5 0
4865 444 1 4.1499999999999998e-01 3.7476978634664850e+00 6.8293185646430183e+00 1.2809639369327504e+01 0 0 0
956 444 1 4.1499999999999998e-01 1.7452892006670340e+00 6.3213489536960337e+00 1.5450886486337280e+01 -3 -2 0
2922 444 1 4.1499999999999998e-01 4.0880998856409727e+00 6.7865872288390525e+00 9.7117360222594353e+00 0 -2 0
6651 444 1 4.1499999999999998e-01 3.0889006731362665e+00 1.0281867391378878e+01 9.2440226597718596e+00 3 -4 0
5984 444 1 4.1499999999999998e-01 9.8837651774290947e-01 9.5651532551735379e+00 9.9222950296219601e+00 0 3 0
1317 444 1 4.1499999999999998e-01 3.8912553514192205e+00 9.4670319760417385e+00 1.2939283767782987e+01 1 2 0
1193 444 1 4.1499999999999998e-01 4.3415717027070846e+00 1.1502795059003690e+01 1.3066774309142369e+01 1 1 0
4402 444 2 -8.2999999999999996e-01 3.5403372357123146e+00 9.5303769870685340e+00 1.6009346377658765e+01 -2 0 0
4403 444 1 4.1499999999999998e-01 2.8538765437221598e+00 8.8650716925261470e+00 1.6058055591249484e+01 -2 0 0
6326 444 1 4.1499999999999998e-01 4.6056457780404325e-01 7.4173588391189753e+00 1.2575908154582361e+01 1 -1 0
955 444 2 -8.2999999999999996e-01 1.8826718364017916e+00 6.9367155299095780e+00 1.6171082209043863e+01 -3 -2 0
4340 444 1 4.1499999999999998e-01 1.9924014699011543e+00 1.1527644722572321e+01 1.2416853875360166e+01 0 -1 0
5983 444 2 -8.2999999999999996e-01 2.5675731007675967e-01 8.9531752004843348e+00 1.0002595308113543e+01 0 3 0
4957 444 2 -8.2999999999999996e-01 5.5999733614920810e+00 1.0316684906109547e+01 9.7990393918766276e+00 1 -3 0
2920 444 2 -8.2999999999999996e-01 3.1880804189483927e+00 6.6867513131290544e+00 1.0021945920820830e+01 0 -2 0
4324 444 2 -8.2999999999999996e-01 5.0661546344087629e+00 8.4179557699328811e+00 1.2842508633512322e+01 1 1 0
4302 444 1 4.1499999999999998e-01 8.6289100767076821e-01 8.7633560410065492e+00 1.4215588273817634e+01 6 -5 0
2921 444 1 4.1499999999999998e-01 2.6783976790048776e+00 7.2859017389913898e+00 9.4765337722810248e+00 0 -2 0
4300 444 2 -8.2999999999999996e-01 5.8850793775248056e-01 9.1312064356590383e+00 1.5055607809710830e+01 6 -5 0
4864 444 2 -8.2999999999999996e-01 3.2538345225672640e+00 6.0430494105220536e+00 1.2577020135881574e+01 0 0 0
4325 444 1 4.1499999999999998e-01 5.4492821617695100e+00 8.1270512339748215e+00 1.2014970282759043e+01 1 1 0
4959 444 1 4.1499999999999998e-01 5.6537070800432971e+00 1.1265987727663765e+01 9.9093565778818746e+00 1 -3 0
4769 444 1 4.1499999999999998e-01 5.4367919137697545e+00 8.5419902645554870e+00 9.8174394214868688e+00 1 0 0
4464 444 1 4.1499999999999998e-01 5.5669223121081632e+00 9.7261914140672499e+00 2.4103543895676246e+01 -1 4 0
3244 444 2 -8.2999999999999996e-01 4.7061059305466655e+00 1.1092351930736587e+01 2.1569950598604802e+01 0 -3 0
6534 444 1 4.1499999999999998e-01 5.1905267740395731e+00 7.9099221359876513e+00 1.9855605749840400e+01 -2 3 0
452 444 6 2.9999999999999999e-02 2.8935948886360672e+00 1.0588710686401768e+01 2.4187514358168922e+01 0 1 0
957 444 1 4.1499999999999998e-01 1.2669121587207730e+00 6.6554661888250584e+00 1.6847817531273069e+01 -3 -2 0
3246 444 1 4.1499999999999998e-01 5.0661242117079439e+00 1.0361542303961214e+01 2.1067420962461345e+01 0 -3 0
3398 444 1 4.1499999999999998e-01 2.7888213171404277e+00 6.7386700827148749e+00 1.9563540073304239e+01 0 -1 0
465 444 6 2.9999999999999999e-02 2.5542658750556457e+00 9.4088548108188537e+00 1.8912747419442173e+01 0 1 0
460 444 6 2.9999999999999999e-02 1.4059468431754352e+00 8.2138414920192524e+00 2.0562767214544539e+01 0 1 0
446 444 5 1.4000000000000001e-01 1.7114725115644198e+00 1.0115794233662466e+01 1.9023845600830402e+01 0 1 0
436 444 4 -4.0000000000000002e-01 1.3405903150457636e+00 1.0335803883293471e+01 2.0388784423556004e+01 0 1 0
444 444 5 1.4000000000000001e-01 1.0163237058523857e+00 9.0917959473542727e+00 2.1059324347656997e+01 0 1 0
442 444 5 1.4000000000000001e-01 1.5834575912011113e+00 9.1592868480959382e+00 2.2503613866522805e+01 0 1 0
434 444 4 -4.0000000000000002e-01 1.2381889335225038e+00 1.0451279987423318e+01 2.3003265566496484e+01 0 1 0
3397 444 2 -8.2999999999999996e-01 3.7341480341004276e+00 6.8593034505976789e+00 1.9473891640442091e+01 0 -1 0
457 444 6 2.9999999999999999e-02 2.6558588750086751e+00 9.0875312373236827e+00 2.2523834277529275e+01 0 1 0
2203 444 2 -8.2999999999999996e-01 5.1474263159781986e+00 7.9565969453458294e+00 2.3223441115112553e+01 3 4 0
2204 444 1 4.1499999999999998e-01 4.6691850464631282e+00 7.5452367627541834e+00 2.2503510576461142e+01 3 4 0
440 444 5 1.4000000000000001e-01 1.8440808850484491e+00 1.0717217263752955e+01 2.4253976968187331e+01 0 1 0
3399 444 1 4.1499999999999998e-01 4.0986268683072113e+00 5.9795598053090480e+00 1.9571042503097569e+01 0 -1 0
464 444 6 2.9999999999999999e-02 7.9791757293415788e-01 9.7962871495363615e+00 1.8528565963742395e+01 0 1 0
2545 444 2 -8.2999999999999996e-01 3.1251344435026895e-01 6.1094616598130980e+00 1.8265143626654581e+01 -2 -1 0
447 444 5 1.4000000000000001e-01 2.0726761800111451e+00 1.1507041429441164e+01 1.8644490173286261e+01 0 1 0
1368 444 1 4.1499999999999998e-01 5.3012601280781304e+00 9.4743323580692653e+00 1.6842586512174893e+01 1 -2 0
456 444 6 2.9999999999999999e-02 1.1312541285506132e+00 8.2818660421716679e+00 2.3085581263758542e+01 0 1 0
466 444 6 2.9999999999999999e-02 3.1331977780652829e+00 1.1574354240013731e+01 1.8850326425759793e+01 0 1 0
467 444 6 2.9999999999999999e-02 1.9154427718738112e+00 1.1626559457234460e+01 1.7523360650453782e+01 0 1 0
5133 444 1 4.1499999999999998e-01 4.1218141159163996e-01 6.6075260058204712e+00 2.6209951044557226e+01 -2 2 0
5131 444 2 -8.2999999999999996e-01 1.4109725798666842e-01 7.2852520515148287e+00 2.5590730942389914e+01 -2 2 0
2606 444 1 4.1499999999999998e-01 4.6438110844893430e+00 1.0984648123407352e+01 2.7420168257192913e+01 -1 1 0
2760 444 1 4.1499999999999998e-01 2.4857222023225831e+00 6.3456176282078793e+00 3.2195654607957366e+01 3 -4 0
2607 444 1 4.1499999999999998e-01 5.1280586097416361e+00 9.9787093275191978e+00 2.6397677782978548e+01 -1 1 0
4289 444 1 4.1499999999999998e-01 5.2576172565068291e-01 1.0591323083378700e+01 3.1444934258612221e+01 2 1 0
3742 444 2 -8.2999999999999996e-01 3.6748439066476841e+00 5.9678017574989575e+00 2.8182772154944189e+01 3 -1 0
5677 444 2 -8.2999999999999996e-01 4.5616990278303335e+00 1.1373516559100588e+01 3.2259737434352552e+01 5 3 0
6046 444 2 -8.2999999999999996e-01 3.5118666795929943e+00 7.8139936422588230e+00 3.1107438511260860e+01 1 3 0
3744 444 1 4.1499999999999998e-01 3.4980841659153805e+00 6.8713150407742507e+00 2.7920755305054453e+01 3 -1 0
453 444 6 2.9999999999999999e-02 1.4339932530499837e+00 1.0034523490241716e+01 2.5089350886484667e+01 0 1 0
5679 444 1 4.1499999999999998e-01 3.7793580947597580e+00 1.0924574524200724e+01 3.1939384353073184e+01 5 3 0
6006 444 1 4.1499999999999998e-01 1.9019085806864733e+00 1.0277182394388168e+01 3.0139294499814469e+01 4 -8 0
1176 444 1 4.1499999999999998e-01 8.1278832082675140e-02 1.0068551143112916e+01 2.7977022716140230e+01 0 -3 0
1174 444 2 -8.2999999999999996e-01 7.2401822175785946e-01 9.7459922217763388e+00 2.8608745645974551e+01 0 -3 0
6394 444 2 -8.2999999999999996e-01 2.7155751974990396e+00 8.3110577249562692e+00 2.7577711822673059e+01 -1 3 0
6004 444 2 -8.2999999999999996e-01 2.0829556893928665e+00 1.0088640607909106e+01 3.1060112877281661e+01 4 -8 0
1175 444 1 4.1499999999999998e-01 2.1293017697933722e-01 9.2198759837252311e+00 2.9223743884293217e+01 0 -3 0
6005 444 1 4.1499999999999998e-01 2.5352241602157708e+00 9.2451134014417971e+00 3.1047942327258042e+01 4 -8 0
2339 444 1 4.1499999999999998e-01 2.8743639311789213e+00 8.1012354371975572e+00 2.5649368614944255e+01 2 -1 0
2340 444 1 4.1499999999999998e-01 3.7152374186949420e+00 7.8291228645089488e+00 2.4420229842245455e+01 2 -1 0
2338 444 2 -8.2999999999999996e-01 2.8706515309802509e+00 7.6224977604961310e+00 2.4820496523988822e+01 2 -1 0
6396 444 1 4.1499999999999998e-01 1.8880889777120284e+00 8.7486594596178104e+00 2.7777719969098243e+01 -1 3 0
6047 444 1 4.1499999999999998e-01 3.0582937284208280e+00 7.5383162188975614e+00 3.0310879713954652e+01 1 3 0
5132 444 1 4.1499999999999998e-01 9.6128966043221031e-01 7.6271359366011389e+00 2.5234876105343954e+01 -2 2 0
6048 444 1 4.1499999999999998e-01 4.4165441423981520e+00 7.5286790122544183e+00 3.0979429035185763e+01 1 3 0
6395 444 1 4.1499999999999998e-01 3.3737504019288060e+00 9.0035181270719953e+00 2.7637175600826737e+01 -1 3 0
2605 444 2 -8.2999999999999996e-01 4.6024117736067192e+00 1.0055488059873113e+01 2.7193939307487319e+01 -1 1 0
1265 444 1 4.1499999999999998e-01 2.2783423305706103e+00 6.5725037732145823e+00 3.8916889070994571e+01 5 4 0
5223 444 1 4.1499999999999998e-01 9.4338375020122667e-01 7.6028211762605533e+00 3.5514700893442956e+01 -1 -3 0
4533 444 1 4.1499999999999998e-01 1.7976116012920027e+00 1.0250690324578400e+01 3.8547215931131760e+01 1 2 0
4520 444 1 4.1499999999999998e-01 1.1070369525398522e+00 6.6240118232857332e+00 4.0575373301342033e+01 4 2 0
4532 444 1 4.1499999999999998e-01 8.0605083879755546e-01 9.5596075566762604e+00 3.7635565188302699e+01 1 2 0
1917 444 1 4.1499999999999998e-01 3.6783925960871531e+00 9.2657824339684449e+00 3.8744495836293240e+01 -1 1 0
2541 444 1 4.1499999999999998e-01 5.0213369141004494e+00 6.8719346853055576e+00 3.5962857499457499e+01 3 2 0
2540 444 1 4.1499999999999998e-01 4.2030168402111565e+00 6.6891484803806796e+00 3.4702366810957400e+01 3 2 0
5221 444 2 -8.2999999999999996e-01 1.4916616132591218e+00 7.3750897384256184e+00 3.6265542028497208e+01 -1 -3 0
4531 444 2 -8.2999999999999996e-01 8.5985177011865199e-01 1.0163652738739982e+01 3.8376150866975436e+01 1 2 0
2539 444 2 -8.2999999999999996e-01 4.4080869125952402e+00 7.3271416073760607e+00 3.5385845365655634e+01 3 2 0
5222 444 1 4.1499999999999998e-01 2.3729605528104458e+00 7.2893828210039331e+00 3.5901950732187167e+01 -1 -3 0
5972 444 1 4.1499999999999998e-01 5.5413691513652088e+00 1.0435202707108671e+01 3.3695216818768735e+01 2 -2 0
2827 444 2 -8.2999999999999996e-01 3.9044111131135795e+00 1.0856162659157615e+01 3.8665324621725439e+01 1 1 0
1916 444 1 4.1499999999999998e-01 4.0621382101365526e+00 8.0992521006537768e+00 3.7859147495545400e+01 -1 1 0
1915 444 2 -8.2999999999999996e-01 3.4263322566868486e+00 8.3696687478718843e+00 3.8521610713584337e+01 -1 1 0
5971 444 2 -8.2999999999999996e-01 5.6263705613363308e+00 1.0255357618582256e+01 3.4631519708951352e+01 2 -2 0
2829 444 1 4.1499999999999998e-01 4.5080598331119779e+00 1.1466934467486096e+01 3.8242478014719140e+01 1 1 0
5973 444 1 4.1499999999999998e-01 4.8909516602240393e+00 9.6765497553157047e+00 3.4832449572749155e+01 2 -2 0
2828 444 1 4.1499999999999998e-01 3.5631029726345540e+00 1.1338663435475395e+01 3.9418274990137327e+01 1 1 0
2759 444 1 4.1499999999999998e-01 1.0771501923076792e+00 6.1262229310413296e+00 3.2705248773981182e+01 3 -4 0
4519 444 2 -8.2999999999999996e-01 8.0543504018792600e-01 6.8928726649138365e+00 4.1443118710337352e+01 4 2 0
4521 444 1 4.1499999999999998e-01 1.0961257505457078e+00 6.1915956494086650e+00 4.2026163590264815e+01 4 2 0
6753 444 7 0.0000000000000000e+00 1.6907200000000000e+00 1.1721480000000000e+01 0.0000000000000000e+00 0 0 0
6754 444 7 0.0000000000000000e+00 4.2285000000000004e+00 1.3186669999999999e+01 0.0000000000000000e+00 0 0 0
6755 444 7 -6.9440000000000002e-02 1.6907700000000001e+00 1.1721480000000000e+01 7.1781499999999996e+00 0 0 0
6756 444 7 -6.9440000000000002e-02 4.2285500000000003e+00 1.3186669999999999e+01 7.1781499999999996e+00 0 0 0
6757 444 7 0.0000000000000000e+00 2.5366499999999998e+00 1.3186669999999999e+01 2.3926400000000001e+00 0 0 0
6758 444 7 0.0000000000000000e+00 5.0744199999999999e+00 1.1721480000000000e+01 2.3926400000000001e+00 0 0 0
6759 444 7 0.0000000000000000e+00 8.4509000000000001e-01 1.3186669999999999e+01 4.7824200000000001e+00 0 0 0
6760 444 7 0.0000000000000000e+00 3.3828600000000000e+00 1.1721480000000000e+01 4.7824499999999999e+00 0 0 0
6761 444 7 0.0000000000000000e+00 1.6907200000000000e+00 1.4651850000000000e+01 0.0000000000000000e+00 0 0 0
6763 444 7 -6.9440000000000002e-02 1.6907700000000001e+00 1.4651850000000000e+01 7.1781899999999998e+00 0 0 0
6766 444 7 0.0000000000000000e+00 5.0744199999999999e+00 1.4651850000000000e+01 2.3926400000000001e+00 0 0 0
6768 444 7 0.0000000000000000e+00 3.3828700000000000e+00 1.4651850000000000e+01 4.7824400000000002e+00 0 0 0
6762 444 7 0.0000000000000000e+00 4.2285000000000004e+00 1.6117039999999999e+01 0.0000000000000000e+00 0 0 0
6764 444 7 -6.9440000000000002e-02 4.2285500000000003e+00 1.6117039999999999e+01 7.1781600000000001e+00 0 0 0
6765 444 7 0.0000000000000000e+00 2.5366499999999998e+00 1.6117039999999999e+01 2.3926400000000001e+00 0 0 0
6767 444 7 0.0000000000000000e+00 8.4509000000000001e-01 1.6117039999999999e+01 4.7824499999999999e+00 0 0 0
5541 444 1 4.1499999999999998e-01 2.1878701689295816e+00 1.5432133919518733e+01 1.4814947594985039e+01 -1 1 0
5602 444 2 -8.2999999999999996e-01 5.0873885328721071e+00 1.6253475979166609e+01 1.1600918670683329e+01 -2 2 0
5420 444 1 4.1499999999999998e-01 3.0715229292937010e+00 1.6242738100385630e+01 1.0217820424802117e+01 2 0 0
5539 444 2 -8.2999999999999996e-01 2.1622342825977889e+00 1.5179945684084327e+01 1.5737972950910011e+01 -1 1 0