LAMMPS data file via write_data, version 11 Aug 2017, timestep = 5000000

7800 atoms
7 atom types
4720 bonds
5 bond types
3170 angles
3 angle types
1350 dihedrals
2 dihedral types

0.0000000000000000e+00 4.5679949999999998e+01 xlo xhi
0.0000000000000000e+00 4.6885919999999999e+01 ylo yhi
0.0000000000000000e+00 6.5000000000000000e+01 zlo zhi

Masses

1 1.0079
2 15.9994
3 22.9898
4 15.9994
5 12.011
6 1.0079
7 107.868

Angle Coeffs # harmonic

1 50 109.471
2 50 104.51
3 55 104.52

Dihedral Coeffs # charmm

1 0.111111 3 0 0
2 0.333333 3 0 0

Atoms # full

6649 444 7 0.0000000000000000e+00 1.6907200000000000e+00 0.0000000000000000e+00 0.0000000000000000e+00 0 0 0
6650 444 7 0.0000000000000000e+00 4.2285000000000004e+00 1.4651900000000000e+00 0.0000000000000000e+00 0 0 0
6651 444 7 -6.2500000000000000e-02 1.6907700000000001e+00 0.0000000000000000e+00 7.1781499999999996e+00 0 0 0
6652 444 7 -6.2500000000000000e-02 4.2285500000000003e+00 1.4651900000000000e+00 7.1781499999999996e+00 0 0 0
6653 444 7 0.0000000000000000e+00 2.5366499999999998e+00 1.4651900000000000e+00 2.3926400000000001e+00 0 0 0
6654 444 7 0.0000000000000000e+00 5.0744199999999999e+00 0.0000000000000000e+00 2.3926400000000001e+00 0 0 0
6655 444 7 0.0000000000000000e+00 8.4509000000000001e-01 1.4651900000000000e+00 4.7824200000000001e+00 0 0 0
6656 444 7 0.0000000000000000e+00 3.3828600000000000e+00 0.0000000000000000e+00 4.7824499999999999e+00 0 0 0
6657 444 7 0.0000000000000000e+00 1.6907200000000000e+00 2.9303699999999999e+00 0.0000000000000000e+00 0 0 0
6658 444 7 0.0000000000000000e+00 4.2285000000000004e+00 4.3955599999999997e+00 0.0000000000000000e+00 0 0 0
6659 444 7 -6.2500000000000000e-02 1.6907700000000001e+00 2.9303699999999999e+00 7.1781899999999998e+00 0 0 0
6660 444 7 -6.2500000000000000e-02 4.2285500000000003e+00 4.3955599999999997e+00 7.1781600000000001e+00 0 0 0
6661 444 7 0.0000000000000000e+00 2.5366499999999998e+00 4.3955599999999997e+00 2.3926400000000001e+00 0 0 0
6662 444 7 0.0000000000000000e+00 5.0744199999999999e+00 2.9303699999999999e+00 2.3926400000000001e+00 0 0 0
6663 444 7 0.0000000000000000e+00 8.4509000000000001e-01 4.3955599999999997e+00 4.7824499999999999e+00 0 0 0
6664 444 7 0.0000000000000000e+00 3.3828700000000000e+00 2.9303699999999999e+00 4.7824400000000002e+00 0 0 0
6665 444 7 0.0000000000000000e+00 1.6907200000000000e+00 5.8607399999999998e+00 0.0000000000000000e+00 0 0 0
6666 444 7 0.0000000000000000e+00 4.2285000000000004e+00 7.3259299999999996e+00 0.0000000000000000e+00 0 0 0
6667 444 7 -6.2500000000000000e-02 1.6907700000000001e+00 5.8607399999999998e+00 7.1781499999999996e+00 0 0 0
6668 444 7 -6.2500000000000000e-02 4.2285500000000003e+00 7.3259299999999996e+00 7.1781499999999996e+00 0 0 0
6669 444 7 0.0000000000000000e+00 2.5366499999999998e+00 7.3259299999999996e+00 2.3926400000000001e+00 0 0 0
6670 444 7 0.0000000000000000e+00 5.0744199999999999e+00 5.8607399999999998e+00 2.3926400000000001e+00 0 0 0
6671 444 7 0.0000000000000000e+00 8.4509000000000001e-01 7.3259299999999996e+00 4.7824200000000001e+00 0 0 0
6672 444 7 0.0000000000000000e+00 3.3828600000000000e+00 5.8607399999999998e+00 4.7824499999999999e+00 0 0 0
6673 444 7 0.0000000000000000e+00 1.6907200000000000e+00 8.7911099999999998e+00 0.0000000000000000e+00 0 0 0
6674 444 7 0.0000000000000000e+00 4.2285000000000004e+00 1.0256300000000000e+01 0.0000000000000000e+00 0 0 0
6675 444 7 -6.2500000000000000e-02 1.6907700000000001e+00 8.7911099999999998e+00 7.1781899999999998e+00 0 0 0
6676 444 7 -6.2500000000000000e-02 4.2285500000000003e+00 1.0256300000000000e+01 7.1781600000000001e+00 0 0 0
6677 444 7 0.0000000000000000e+00 2.5366499999999998e+00 1.0256300000000000e+01 2.3926400000000001e+00 0 0 0
6678 444 7 0.0000000000000000e+00 5.0744199999999999e+00 8.7911099999999998e+00 2.3926400000000001e+00 0 0 0
6679 444 7 0.0000000000000000e+00 8.4509000000000001e-01 1.0256300000000000e+01 4.7824499999999999e+00 0 0 0
6680 444 7 0.0000000000000000e+00 3.3828700000000000e+00 8.7911099999999998e+00 4.7824400000000002e+00 0 0 0
6777 444 7 0.0000000000000000e+00 6.7662699999999996e+00 0.0000000000000000e+00 0.0000000000000000e+00 0 0 0
6779 444 7 -6.2500000000000000e-02 6.7663200000000003e+00 0.0000000000000000e+00 7.1781499999999996e+00 0 0 0
6781 444 7 0.0000000000000000e+00 7.6121999999999996e+00 1.4651900000000000e+00 2.3926400000000001e+00 0 0 0
6783 444 7 0.0000000000000000e+00 5.9206399999999997e+00 1.4651900000000000e+00 4.7824200000000001e+00 0 0 0
6785 444 7 0.0000000000000000e+00 6.7662699999999996e+00 2.9303699999999999e+00 0.0000000000000000e+00 0 0 0
6787 444 7 -6.2500000000000000e-02 6.7663200000000003e+00 2.9303699999999999e+00 7.1781899999999998e+00 0 0 0
6789 444 7 0.0000000000000000e+00 7.6121999999999996e+00 4.3955599999999997e+00 2.3926400000000001e+00 0 0 0
6791 444 7 0.0000000000000000e+00 5.9206399999999997e+00 4.3955599999999997e+00 4.7824499999999999e+00 0 0 0
6793 444 7 0.0000000000000000e+00 6.7662699999999996e+00 5.8607399999999998e+00 0.0000000000000000e+00 0 0 0
6795 444 7 -6.2500000000000000e-02 6.7663200000000003e+00 5.8607399999999998e+00 7.1781499999999996e+00 0 0 0
6797 444 7 0.0000000000000000e+00 7.6121999999999996e+00 7.3259299999999996e+00 2.3926400000000001e+00 0 0 0
6799 444 7 0.0000000000000000e+00 5.9206399999999997e+00 7.3259299999999996e+00 4.7824200000000001e+00 0 0 0
6801 444 7 0.0000000000000000e+00 6.7662699999999996e+00 8.7911099999999998e+00 0.0000000000000000e+00 0 0 0
6803 444 7 -6.2500000000000000e-02 6.7663200000000003e+00 8.7911099999999998e+00 7.1781899999999998e+00 0 0 0
6805 444 7 0.0000000000000000e+00 7.6121999999999996e+00 1.0256300000000000e+01 2.3926400000000001e+00 0 0 0
6807 444 7 0.0000000000000000e+00 5.9206399999999997e+00 1.0256300000000000e+01 4.7824499999999999e+00 0 0 0
6778 444 7 0.0000000000000000e+00 9.3040500000000002e+00 1.4651900000000000e+00 0.0000000000000000e+00 0 0 0
6780 444 7 -6.2500000000000000e-02 9.3041000000000000e+00 1.4651900000000000e+00 7.1781499999999996e+00 0 0 0
6782 444 7 0.0000000000000000e+00 1.0149970000000000e+01 0.0000000000000000e+00 2.3926400000000001e+00 0 0 0
6784 444 7 0.0000000000000000e+00 8.4584100000000007e+00 0.0000000000000000e+00 4.7824499999999999e+00 0 0 0
6786 444 7 0.0000000000000000e+00 9.3040500000000002e+00 4.3955599999999997e+00 0.0000000000000000e+00 0 0 0
6788 444 7 -6.2500000000000000e-02 9.3041000000000000e+00 4.3955599999999997e+00 7.1781600000000001e+00 0 0 0
6790 444 7 0.0000000000000000e+00 1.0149970000000000e+01 2.9303699999999999e+00 2.3926400000000001e+00 0 0 0
6792 444 7 0.0000000000000000e+00 8.4584200000000003e+00 2.9303699999999999e+00 4.7824400000000002e+00 0 0 0
6911 444 7 0.0000000000000000e+00 1.0996190000000000e+01 1.4651900000000000e+00 4.7824200000000001e+00 0 0 0
6919 444 7 0.0000000000000000e+00 1.0996190000000000e+01 4.3955599999999997e+00 4.7824499999999999e+00 0 0 0
6794 444 7 0.0000000000000000e+00 9.3040500000000002e+00 7.3259299999999996e+00 0.0000000000000000e+00 0 0 0
6796 444 7 -6.2500000000000000e-02 9.3041000000000000e+00 7.3259299999999996e+00 7.1781499999999996e+00 0 0 0
6798 444 7 0.0000000000000000e+00 1.0149970000000000e+01 5.8607399999999998e+00 2.3926400000000001e+00 0 0 0
6800 444 7 0.0000000000000000e+00 8.4584100000000007e+00 5.8607399999999998e+00 4.7824499999999999e+00 0 0 0
6927 444 7 0.0000000000000000e+00 1.0996190000000000e+01 7.3259299999999996e+00 4.7824200000000001e+00 0 0 0
6802 444 7 0.0000000000000000e+00 9.3040500000000002e+00 1.0256300000000000e+01 0.0000000000000000e+00 0 0 0
6804 444 7 -6.2500000000000000e-02 9.3041000000000000e+00 1.0256300000000000e+01 7.1781600000000001e+00 0 0 0
6806 444 7 0.0000000000000000e+00 1.0149970000000000e+01 8.7911099999999998e+00 2.3926400000000001e+00 0 0 0
6808 444 7 0.0000000000000000e+00 8.4584200000000003e+00 8.7911099999999998e+00 4.7824400000000002e+00 0 0 0
6935 444 7 0.0000000000000000e+00 1.0996190000000000e+01 1.0256300000000000e+01 4.7824499999999999e+00 0 0 0
6905 444 7 0.0000000000000000e+00 1.1841820000000000e+01 0.0000000000000000e+00 0.0000000000000000e+00 0 0 0
6906 444 7 0.0000000000000000e+00 1.4379600000000000e+01 1.4651900000000000e+00 0.0000000000000000e+00 0 0 0
6907 444 7 -6.2500000000000000e-02 1.1841870000000000e+01 0.0000000000000000e+00 7.1781499999999996e+00 0 0 0
6908 444 7 -6.2500000000000000e-02 1.4379650000000000e+01 1.4651900000000000e+00 7.1781499999999996e+00 0 0 0
6909 444 7 0.0000000000000000e+00 1.2687749999999999e+01 1.4651900000000000e+00 2.3926400000000001e+00 0 0 0
6910 444 7 0.0000000000000000e+00 1.5225519999999999e+01 0.0000000000000000e+00 2.3926400000000001e+00 0 0 0
6912 444 7 0.0000000000000000e+00 1.3533960000000000e+01 0.0000000000000000e+00 4.7824499999999999e+00 0 0 0
6913 444 7 0.0000000000000000e+00 1.1841820000000000e+01 2.9303699999999999e+00 0.0000000000000000e+00 0 0 0
6914 444 7 0.0000000000000000e+00 1.4379600000000000e+01 4.3955599999999997e+00 0.0000000000000000e+00 0 0 0
6915 444 7 -6.2500000000000000e-02 1.1841870000000000e+01 2.9303699999999999e+00 7.1781899999999998e+00 0 0 0
6916 444 7 -6.2500000000000000e-02 1.4379650000000000e+01 4.3955599999999997e+00 7.1781600000000001e+00 0 0 0
6917 444 7 0.0000000000000000e+00 1.2687749999999999e+01 4.3955599999999997e+00 2.3926400000000001e+00 0 0 0
6918 444 7 0.0000000000000000e+00 1.5225519999999999e+01 2.9303699999999999e+00 2.3926400000000001e+00 0 0 0
6920 444 7 0.0000000000000000e+00 1.3533970000000000e+01 2.9303699999999999e+00 4.7824400000000002e+00 0 0 0
6921 444 7 0.0000000000000000e+00 1.1841820000000000e+01 5.8607399999999998e+00 0.0000000000000000e+00 0 0 0
6922 444 7 0.0000000000000000e+00 1.4379600000000000e+01 7.3259299999999996e+00 0.0000000000000000e+00 0 0 0
6923 444 7 -6.2500000000000000e-02 1.1841870000000000e+01 5.8607399999999998e+00 7.1781499999999996e+00 0 0 0
6924 444 7 -6.2500000000000000e-02 1.4379650000000000e+01 7.3259299999999996e+00 7.1781499999999996e+00 0 0 0
6925 444 7 0.0000000000000000e+00 1.2687749999999999e+01 7.3259299999999996e+00 2.3926400000000001e+00 0 0 0
6926 444 7 0.0000000000000000e+00 1.5225519999999999e+01 5.8607399999999998e+00 2.3926400000000001e+00 0 0 0
6928 444 7 0.0000000000000000e+00 1.3533960000000000e+01 5.8607399999999998e+00 4.7824499999999999e+00 0 0 0
6929 444 7 0.0000000000000000e+00 1.1841820000000000e+01 8.7911099999999998e+00 0.0000000000000000e+00 0 0 0
6930 444 7 0.0000000000000000e+00 1.4379600000000000e+01 1.0256300000000000e+01 0.0000000000000000e+00 0 0 0
6931 444 7 -6.2500000000000000e-02 1.1841870000000000e+01 8.7911099999999998e+00 7.1781899999999998e+00 0 0 0
6932 444 7 -6.2500000000000000e-02 1.4379650000000000e+01 1.0256300000000000e+01 7.1781600000000001e+00 0 0 0
6933 444 7 0.0000000000000000e+00 1.2687749999999999e+01 1.0256300000000000e+01 2.3926400000000001e+00 0 0 0
6934 444 7 0.0000000000000000e+00 1.5225519999999999e+01 8.7911099999999998e+00 2.3926400000000001e+00 0 0 0
6936 444 7 0.0000000000000000e+00 1.3533970000000000e+01 8.7911099999999998e+00 4.7824400000000002e+00 0 0 0
6421 444 2 -8.2999999999999996e-01 4.6257768258573462e+00 6.5405424094668385e+00 1.1238587551490062e+01 0 4 0
3416 444 1 4.1499999999999998e-01 3.8298304269208860e+00 8.6248056133155675e+00 9.7174014953191730e+00 3 0 0
127 444 6 2.9999999999999999e-02 6.0716816241854721e+00 9.8267982895833974e+00 1.3862249033177058e+01 0 -1 0
3417 444 1 4.1499999999999998e-01 3.4271282287158056e+00 9.8858956503802613e+00 1.0451825132961929e+01 3 0 0
3415 444 2 -8.2999999999999996e-01 4.1096308470642580e+00 9.2156887092963942e+00 1.0416544361711281e+01 3 0 0
6423 444 1 4.1499999999999998e-01 4.7289886564830592e+00 7.4699057746930961e+00 1.1033983216671064e+01 0 4 0
115 444 5 1.4000000000000001e-01 5.7813935873483215e+00 1.0347560036971917e+01 1.4807345336782957e+01 0 -1 0
130 444 6 2.9999999999999999e-02 3.8265854465625204e+00 9.6091657708226030e+00 1.4362725672665704e+01 0 -1 0
117 444 5 1.4000000000000001e-01 4.2669821067651936e+00 1.0446477599341611e+01 1.4846811325595231e+01 0 -1 0
126 444 6 2.9999999999999999e-02 6.1749543006626846e+00 9.8673598940825489e+00 1.5668364471321846e+01 0 -1 0
6069 444 1 4.1499999999999998e-01 1.3208709976238735e+00 7.9872931321383138e+00 1.2590258578583304e+01 2 3 0
131 444 6 2.9999999999999999e-02 3.8738837757682587e+00 1.0568350152376418e+01 1.5865181314312998e+01 0 -1 0
6422 444 1 4.1499999999999998e-01 3.8648541789499546e+00 6.2652980697921699e+00 1.0727246997925814e+01 0 4 0
2907 444 1 4.1499999999999998e-01 1.2567826028847657e+00 3.7302461723411184e+00 1.1641953855431492e+01 -3 1 0
4842 444 1 4.1499999999999998e-01 5.4587794219712178e+00 5.6503371964406304e+00 1.4512931167765366e+01 3 -1 0
2123 444 1 4.1499999999999998e-01 2.8246059391023559e+00 3.3833497299909285e+00 9.5264416452131861e+00 -2 -1 0
3390 444 1 4.1499999999999998e-01 4.7448609797859618e+00 1.6907980139057583e+00 1.3639820028580155e+01 -6 1 0
3388 444 2 -8.2999999999999996e-01 5.4267928740780746e+00 1.3651623007198264e+00 1.3052314690116001e+01 -6 1 0
1528 444 2 -8.2999999999999996e-01 3.1556730226811487e+00 5.3403904727540468e+00 1.3692071627246948e+01 0 3 0
1529 444 1 4.1499999999999998e-01 2.6724035444104479e+00 6.1102151946907268e+00 1.3391982413225589e+01 0 3 0
1530 444 1 4.1499999999999998e-01 3.1083250142055387e+00 4.7265571741638386e+00 1.2959133063849245e+01 0 3 0
952 444 2 -8.2999999999999996e-01 2.2367558441287976e+00 7.7670833376918864e+00 1.5491844988310458e+01 2 4 0
2732 444 1 4.1499999999999998e-01 7.6214138740363824e-01 4.0978847598126418e+00 1.5533861455916218e+01 3 -3 0
953 444 1 4.1499999999999998e-01 1.2825844322653972e+00 7.7282488227339563e+00 1.5557275284656319e+01 2 4 0
5781 444 1 4.1499999999999998e-01 1.7733055587673641e+00 2.2096414403850297e+00 1.3296372495185890e+01 3 0 0
2124 444 1 4.1499999999999998e-01 3.7672596315755502e+00 2.9643262109613580e+00 1.0634466243519471e+01 -2 -1 0
3389 444 1 4.1499999999999998e-01 5.2745992795697276e+00 1.8277597018541389e+00 1.2228255435697331e+01 -6 1 0
2122 444 2 -8.2999999999999996e-01 2.8377525038910068e+00 3.0262180100565765e+00 1.0414425855954512e+01 -2 -1 0
1585 444 2 -8.2999999999999996e-01 6.4706734212289083e+00 1.0618714183274893e+01 1.0432416095503624e+01 -4 -2 0
2905 444 2 -8.2999999999999996e-01 8.0228624322683184e-01 3.7134027050119700e+00 1.2484201677251935e+01 -3 1 0
2278 444 2 -8.2999999999999996e-01 4.0061623760276337e+00 2.6627349649504866e+00 1.5031074995199734e+01 3 -3 0
4382 444 1 4.1499999999999998e-01 1.9573345992097870e+00 5.7274046495798210e+00 9.6527079267676346e+00 3 0 0
6032 444 1 4.1499999999999998e-01 1.2802202861366523e+00 1.1373246134000230e+01 1.0401255346572784e+01 1 -2 0
6031 444 2 -8.2999999999999996e-01 2.1525412843197436e+00 1.1121224044332443e+01 1.0098313700126157e+01 1 -2 0
5779 444 2 -8.2999999999999996e-01 2.0060545658981246e+00 1.4850849362588128e+00 1.3876957048301353e+01 3 0 0
5780 444 1 4.1499999999999998e-01 2.7723178989594235e+00 1.7989480010408871e+00 1.4357127491454465e+01 3 0 0
5147 444 1 4.1499999999999998e-01 5.8317027626848104e+00 2.4652907432246125e+00 9.9104868380453457e+00 -8 2 0
2752 444 2 -8.2999999999999996e-01 6.5431585878195564e-01 8.6225305920591460e+00 1.0567572985680158e+01 -2 2 0
4381 444 2 -8.2999999999999996e-01 2.3743460223202901e+00 6.4692039638921095e+00 1.0090962790684356e+01 3 0 0
1587 444 1 4.1499999999999998e-01 7.1135627298582129e+00 9.9673834234322456e+00 1.0712941412463985e+01 -4 -2 0
954 444 1 4.1499999999999998e-01 2.4139757020011179e+00 7.7436263593515404e+00 1.4551485665723806e+01 2 4 0
2735 444 1 4.1499999999999998e-01 2.2318454647089858e+00 9.7981919303472698e-01 1.0138034680938661e+01 0 -1 0
4383 444 1 4.1499999999999998e-01 1.6801043518765226e+00 7.1236785701311458e+00 1.0167934274783244e+01 3 0 0
5148 444 1 4.1499999999999998e-01 5.9633493885119941e+00 3.5816436835442209e+00 1.0924548221811229e+01 -8 2 0
5146 444 2 -8.2999999999999996e-01 5.4553885302671503e+00 2.7948694957380211e+00 1.0726573428274545e+01 -8 2 0
4840 444 2 -8.2999999999999996e-01 6.0445455838094313e+00 5.7240038770297028e+00 1.3759483448838859e+01 3 -1 0
1586 444 1 4.1499999999999998e-01 5.6588971925774336e+00 1.0123308286814353e+01 1.0323670774720823e+01 -4 -2 0
2280 444 1 4.1499999999999998e-01 3.5938668943254548e+00 3.3831546347667687e+00 1.5507773084460441e+01 3 -3 0
6067 444 2 -8.2999999999999996e-01 2.1925551580739575e+00 7.6237727264928470e+00 1.2745987524173398e+01 2 3 0
6611 444 1 4.1499999999999998e-01 7.0086016740069619e+00 6.3649704605155855e-01 1.3600353595588887e+01 1 -1 0
6471 444 1 4.1499999999999998e-01 7.0572528652121331e+00 5.2337252012787641e+00 1.1898308873779920e+01 -4 1 0
6068 444 1 4.1499999999999998e-01 2.5808158179224825e+00 7.5494097439600187e+00 1.1874233168089265e+01 2 3 0
2731 444 2 -8.2999999999999996e-01 2.5598477311200651e-01 4.5293574506395684e+00 1.6222242727506675e+01 3 -3 0
2279 444 1 4.1499999999999998e-01 4.7837284198192354e+00 2.4479335029972957e+00 1.5546326219543930e+01 3 -3 0
1883 444 1 4.1499999999999998e-01 3.3062170874741086e+00 5.2745747021122451e+00 1.5492048337650896e+01 5 0 0
2864 444 1 4.1499999999999998e-01 9.2361687584105678e-02 2.8495111889513464e-01 1.0318638516329596e+01 -2 5 0
135 444 6 2.9999999999999999e-02 2.3337859049901279e+00 1.1168224789811426e+01 1.2918671959496105e+01 0 -1 0
6470 444 1 4.1499999999999998e-01 6.7577955482720942e+00 5.4186990222943292e+00 1.0425894117894385e+01 -4 1 0
4841 444 1 4.1499999999999998e-01 5.5384167388031704e+00 6.2103070018672746e+00 1.3108656622232738e+01 3 -1 0
6469 444 2 -8.2999999999999996e-01 7.1361390358027492e+00 4.7986921216982950e+00 1.1049335868029793e+01 -4 1 0
2808 444 1 4.1499999999999998e-01 6.9598744673319093e+00 7.7512349307591932e-01 1.5647245353885715e+01 -6 5 0
2753 444 1 4.1499999999999998e-01 1.1436309054261984e+00 9.2138366515706167e+00 9.9955936414804594e+00 -2 2 0
2835 444 1 4.1499999999999998e-01 7.1528210779189711e+00 2.5145536769114996e-01 1.0294757715413791e+01 1 0 0
1574 444 1 4.1499999999999998e-01 6.4091034960545725e+00 4.8887897943097673e+00 1.6219283379749797e+01 -4 -5 0
2906 444 1 4.1499999999999998e-01 3.1680807268217603e-01 4.5379025448509331e+00 1.2511456252110184e+01 -3 1 0
134 444 6 2.9999999999999999e-02 1.9291139507771189e+00 1.1462016889490590e+01 1.4546735022143128e+01 0 -1 0
2734 444 2 -8.2999999999999996e-01 1.9721033843135307e+00 1.3513591960866597e-01 1.0505833997331786e+01 0 -1 0
111 444 4 -4.0000000000000002e-01 3.9914719454713157e+00 1.1629002340066750e+01 1.4049348712528106e+01 0 -1 0
109 444 4 -4.0000000000000002e-01 6.2612261152784043e+00 1.1720050587230416e+01 1.4738033882124192e+01 0 -1 0
5010 444 1 4.1499999999999998e-01 1.5047985069631052e+01 1.4612088856318264e+00 1.0738067130208773e+01 0 1 0
2468 444 1 4.1499999999999998e-01 7.7982167719924735e+00 5.3042117635381443e+00 1.3849121252430141e+01 -1 2 0
2882 444 1 4.1499999999999998e-01 1.2533902651998497e+01 9.6252227442421621e+00 1.0637555939100279e+01 6 -2 0
5359 444 2 -8.2999999999999996e-01 9.9954212490632202e+00 6.7562259371504636e+00 1.2365093643560668e+01 -3 -1 0
5361 444 1 4.1499999999999998e-01 9.5131717582561759e+00 6.1662259467903899e+00 1.2944375353412125e+01 -3 -1 0
910 444 2 -8.2999999999999996e-01 9.9608654028623445e+00 2.2679957413526184e+00 1.3860969121781038e+01 -2 0 0
1505 444 1 4.1499999999999998e-01 9.8960975152012978e+00 6.2920384811724315e+00 1.5226828115222332e+01 -5 -4 0
5352 444 1 4.1499999999999998e-01 1.1167690220639509e+01 6.2496021455278177e+00 9.9279944677146581e+00 3 -3 0
5360 444 1 4.1499999999999998e-01 1.0248710319993886e+01 6.2088047830426518e+00 1.1621853037574747e+01 -3 -1 0
5351 444 1 4.1499999999999998e-01 1.0032228168974553e+01 5.4133456131673707e+00 9.3772711815861971e+00 3 -3 0
4242 444 1 4.1499999999999998e-01 8.8193082243132839e+00 2.2341306179439520e+00 1.1186534110309134e+01 -3 -3 0
4241 444 1 4.1499999999999998e-01 9.4005394457213303e+00 3.6113165562286431e+00 1.0946900314125564e+01 -3 -3 0
4240 444 2 -8.2999999999999996e-01 9.5795997774225707e+00 2.7801646615216544e+00 1.1386622699859993e+01 -3 -3 0
5350 444 2 -8.2999999999999996e-01 1.0581377786720868e+01 5.5272051452058300e+00 1.0152966121477803e+01 3 -3 0
1431 444 1 4.1499999999999998e-01 1.0533417074981319e+01 8.6870539903190078e+00 1.3069202858494060e+01 -1 -1 0
1429 444 2 -8.2999999999999996e-01 1.0555240030078203e+01 9.6327693718453151e+00 1.3215415976705481e+01 -1 -1 0
1430 444 1 4.1499999999999998e-01 1.1061520942928531e+01 9.7394825575876833e+00 1.4020725758381607e+01 -1 -1 0
2433 444 1 4.1499999999999998e-01 1.1305051733182683e+01 2.3847290208381331e+00 1.1157326684302506e+01 -4 2 0
2432 444 1 4.1499999999999998e-01 1.2126240831840651e+01 1.2554362768294169e+00 1.0572312116782706e+01 -4 2 0
2431 444 2 -8.2999999999999996e-01 1.2165228627199721e+01 1.9681419136458145e+00 1.1210091677999532e+01 -4 2 0
5328 444 1 4.1499999999999998e-01 1.3299001889043632e+01 4.3761254039163093e+00 9.8761042092331301e+00 3 3 0
2467 444 2 -8.2999999999999996e-01 8.6142599853369948e+00 5.3641822371887518e+00 1.4345819233409646e+01 -1 2 0
2469 444 1 4.1499999999999998e-01 8.4935533571897572e+00 4.7612707848672589e+00 1.5079412822913314e+01 -1 2 0
5326 444 2 -8.2999999999999996e-01 1.3321105088144863e+01 4.6731719575879831e+00 1.0785778258901839e+01 3 3 0
912 444 1 4.1499999999999998e-01 9.3466430735522970e+00 1.5697205474137825e+00 1.4087628700839078e+01 -2 0 0
3380 444 1 4.1499999999999998e-01 1.3356858583498040e+01 2.0023906018097555e+00 1.3199911147972259e+01 3 -3 0
3381 444 1 4.1499999999999998e-01 1.1977959085935879e+01 2.3476368552258111e+00 1.3720810871135130e+01 3 -3 0
3379 444 2 -8.2999999999999996e-01 1.2908574154588702e+01 2.4323393305603851e+00 1.3928208897881349e+01 3 -3 0
5540 444 1 4.1499999999999998e-01 1.2666831029064628e+01 4.2585901953694805e+00 1.4594644930735416e+01 4 1 0
911 444 1 4.1499999999999998e-01 9.7218678553182531e+00 2.5174346345795229e+00 1.2968280867445252e+01 -2 0 0
5430 444 1 4.1499999999999998e-01 1.1164617402527041e+01 1.0036726884874930e+01 1.1660591814200467e+01 -3 -2 0
6463 444 2 -8.2999999999999996e-01 8.4603870815226223e+00 8.8347160046594553e+00 1.0777455508778276e+01 6 3 0
6464 444 1 4.1499999999999998e-01 8.8481921291170753e+00 8.1419046090554197e+00 1.1312106561112705e+01 6 3 0
6465 444 1 4.1499999999999998e-01 8.1222624850632936e+00 8.3811558207569394e+00 1.0005324117076043e+01 6 3 0
5428 444 2 -8.2999999999999996e-01 1.1116603149167865e+01 1.0099201834385656e+01 1.0706640291563730e+01 -3 -2 0
1824 444 1 4.1499999999999998e-01 1.3355674248838927e+01 6.9065511396937715e+00 1.5000116700322234e+01 -3 -2 0
1823 444 1 4.1499999999999998e-01 1.3548945606501285e+01 7.6186784581621021e+00 1.3678218022964487e+01 -3 -2 0
2881 444 2 -8.2999999999999996e-01 1.3454002429660074e+01 9.4344944246784994e+00 1.0455152539298009e+01 6 -2 0
5429 444 1 4.1499999999999998e-01 1.0241485501493589e+01 9.7783037892843492e+00 1.0488866487609618e+01 -3 -2 0
2883 444 1 4.1499999999999998e-01 1.3460137742527385e+01 9.1263461212122738e+00 9.5489302531191029e+00 6 -2 0
1822 444 2 -8.2999999999999996e-01 1.3643361078703119e+01 7.7380740958517702e+00 1.4623237758962009e+01 -3 -2 0
3874 444 2 -8.2999999999999996e-01 1.3362450869140099e+01 7.0761000786576940e+00 1.2097956466891072e+01 -7 1 0
3875 444 1 4.1499999999999998e-01 1.3611546544540012e+01 6.2618966650180363e+00 1.1660628165937009e+01 -7 1 0
5327 444 1 4.1499999999999998e-01 1.2865388841268386e+01 3.9870538702050236e+00 1.1273422464543218e+01 3 3 0
3876 444 1 4.1499999999999998e-01 1.2499699286632040e+01 7.2862505661113719e+00 1.1740565461667675e+01 -7 1 0
3830 444 1 4.1499999999999998e-01 1.4786529433175815e+01 8.0716113842374035e+00 1.1582699038485782e+01 -1 3 0
3848 444 1 4.1499999999999998e-01 1.3080439033856440e+01 9.6275669169453924e+00 1.4819434687671240e+01 0 1 0
3065 444 1 4.1499999999999998e-01 1.0515434333157593e+01 3.0188361674863713e+00 1.5690256362980803e+01 5 5 0
3849 444 1 4.1499999999999998e-01 1.3322732429525272e+01 1.1062524171546897e+01 1.4402197588572461e+01 0 1 0
3847 444 2 -8.2999999999999996e-01 1.2825236063035037e+01 1.0527843402215028e+01 1.5020942876131608e+01 0 1 0
1504 444 2 -8.2999999999999996e-01 1.0400738984701512e+01 6.6310751698940988e+00 1.5966168439487204e+01 -5 -4 0
1506 444 1 4.1499999999999998e-01 1.1240703978175860e+01 6.1752010640533399e+00 1.5912596332976539e+01 -5 -4 0
5539 444 2 -8.2999999999999996e-01 1.2778889985224398e+01 4.8852740843206117e+00 1.5309446969946295e+01 4 1 0
2574 444 1 4.1499999999999998e-01 1.5172870202982258e+01 7.9671606934167150e+00 1.5763104605303409e+01 2 -1 0
5541 444 1 4.1499999999999998e-01 1.3575957055901663e+01 4.5998862748322678e+00 1.5756067358344884e+01 4 1 0
855 444 1 4.1499999999999998e-01 1.3304735628612313e+01 1.5100315753816402e+00 1.5442974247651980e+01 5 3 0
124 444 6 2.9999999999999999e-02 7.7306792957880539e+00 1.1361859317297009e+01 1.3262706518060908e+01 0 -1 0
854 444 1 4.1499999999999998e-01 1.2650003245652229e+01 3.9824558869086757e-01 1.6234904590513775e+01 5 3 0
6610 444 2 -8.2999999999999996e-01 7.8857209234177104e+00 5.7905663336548019e-01 1.3979291966391949e+01 1 -1 0
125 444 6 2.9999999999999999e-02 8.3952784070609692e+00 1.1333198502526525e+01 1.4914216718028669e+01 0 -1 0
3992 444 1 4.1499999999999998e-01 1.5205059035905176e+01 1.1153004176142773e+01 1.3290867102430381e+01 -3 -7 0
2834 444 1 4.1499999999999998e-01 8.3527798343499420e+00 7.5617380282173263e-01 9.5219359381949822e+00 1 0 0
2833 444 2 -8.2999999999999996e-01 7.7518231240234945e+00 9.9504416819327912e-01 1.0227644011294577e+01 1 0 0
1047 444 1 4.1499999999999998e-01 9.4661389769603232e+00 1.1636103701989887e+01 9.9365888587000448e+00 3 1 0
4731 444 1 4.1499999999999998e-01 1.5973626016309830e+00 6.6715501163301827e+00 1.8188131760902781e+01 -2 2 0
2733 444 1 4.1499999999999998e-01 3.5072174511194992e-01 3.9575486182701343e+00 1.6984011395313853e+01 3 -3 0
2630 444 1 4.1499999999999998e-01 1.1876046014766428e+00 8.8924977445789661e+00 2.0844520932538714e+01 1 2 0
4148 444 1 4.1499999999999998e-01 5.3622542322004616e+00 8.4419900963512162e-01 1.7518671192601616e+01 -3 3 0
2631 444 1 4.1499999999999998e-01 1.2401711697684035e+00 7.4304295728842789e+00 2.0455305543963913e+01 1 2 0
6315 444 1 4.1499999999999998e-01 3.2654827628376299e+00 3.3465200181186208e+00 1.8084630281458800e+01 -4 2 0
832 444 2 -8.2999999999999996e-01 7.2198672743075798e-01 1.1177839131577221e+01 2.3269929272457730e+01 0 -4 0
1730 444 1 4.1499999999999998e-01 3.2916149283039169e+00 8.1957560701048671e+00 1.6810108890158940e+01 -1 5 0
1882 444 2 -8.2999999999999996e-01 3.4883480099002409e+00 4.9564129465128746e+00 1.6376262297130975e+01 5 0 0
3866 444 1 4.1499999999999998e-01 8.7289847776099749e-01 1.1026822786866825e+01 1.9729243219477095e+01 7 1 0
1731 444 1 4.1499999999999998e-01 3.4827510444799579e+00 8.8769286370483425e+00 1.8148528534885397e+01 -1 5 0
4315 444 2 -8.2999999999999996e-01 2.2043939629989269e+00 6.7173242402819886e+00 2.3212566412094780e+01 4 -2 0
4316 444 1 4.1499999999999998e-01 1.9104268479513542e+00 7.2661532339006696e+00 2.2485516218942792e+01 4 -2 0
4712 444 1 4.1499999999999998e-01 6.0959460162147243e+00 4.2347723243506170e+00 1.8645721564486418e+01 2 4 0
6313 444 2 -8.2999999999999996e-01 2.7445519029387748e+00 2.7003010056954864e+00 1.8561352300407641e+01 -4 2 0
4711 444 2 -8.2999999999999996e-01 5.1681625307305454e+00 4.1943588676400756e+00 1.8877706795354001e+01 2 4 0
1729 444 2 -8.2999999999999996e-01 3.7145358446833194e+00 8.0859972041186126e+00 1.7661768631541342e+01 -1 5 0
1884 444 1 4.1499999999999998e-01 4.3822577854813272e+00 5.2473302600665255e+00 1.6556609364905285e+01 5 0 0
1989 444 1 4.1499999999999998e-01 1.5436339506223631e+00 3.7173628802649046e+00 2.1235424832848697e+01 4 1 0
1987 444 2 -8.2999999999999996e-01 2.0206554674614008e+00 4.2211805805810902e+00 2.0575993224809260e+01 4 1 0
4755 444 1 4.1499999999999998e-01 5.2183723381826264e+00 2.8954629685254325e+00 2.0068441919220607e+01 3 0 0
4753 444 2 -8.2999999999999996e-01 5.2064049673988153e+00 2.0706634013737930e+00 2.0554028532526040e+01 3 0 0
1988 444 1 4.1499999999999998e-01 2.3201376811572372e+00 3.5670998825134581e+00 1.9944549858805701e+01 4 1 0
6428 444 1 4.1499999999999998e-01 5.3135088888643986e+00 2.3351720540885825e+00 2.2212173621213495e+01 2 0 0
4713 444 1 4.1499999999999998e-01 4.9042455349957095e+00 5.1096247966601513e+00 1.8971878914177722e+01 2 4 0
6427 444 2 -8.2999999999999996e-01 5.1300535592808583e+00 2.4290739696465526e+00 2.3146924973319258e+01 2 0 0
6429 444 1 4.1499999999999998e-01 4.7531432607197965e+00 3.3049450270072818e+00 2.3230715143108348e+01 2 0 0
5973 444 1 4.1499999999999998e-01 3.3844738326988435e+00 5.6087491828902101e+00 2.0549673016650083e+01 0 5 0
5971 444 2 -8.2999999999999996e-01 4.0139219351591109e+00 6.2857912633995863e+00 2.0301395327427617e+01 0 5 0
5972 444 1 4.1499999999999998e-01 3.5932266813236278e+00 6.7510643131870003e+00 1.9578367814670173e+01 0 5 0
3164 444 1 4.1499999999999998e-01 8.6494572411989334e-01 1.8282642723483726e+00 2.2368516465898033e+01 2 -2 0
5678 444 1 4.1499999999999998e-01 6.7827309189225478e+00 6.3886155248628196e+00 2.1334109156123141e+01 0 -2 0
4018 444 2 -8.2999999999999996e-01 5.7568767649764139e+00 9.4583654829158341e+00 2.2292302640244188e+01 -1 1 0
5677 444 2 -8.2999999999999996e-01 6.3331802861544926e+00 7.1664972848313999e+00 2.1003903015368902e+01 0 -2 0
5679 444 1 4.1499999999999998e-01 5.4836978339518421e+00 6.8433816176773856e+00 2.0703556943217933e+01 0 -2 0
5641 444 2 -8.2999999999999996e-01 5.7025410637172191e+00 6.3981006705191810e+00 1.6938814250439716e+01 -1 1 0
4317 444 1 4.1499999999999998e-01 1.6931407929877023e+00 7.0194313624961335e+00 2.3963288293498046e+01 4 -2 0
1535 444 1 4.1499999999999998e-01 4.9323995811767132e+00 5.8977322793995350e+00 2.4138111219040084e+01 1 -1 0
1534 444 2 -8.2999999999999996e-01 4.4801007960125885e+00 5.2881987634390422e+00 2.3554907517907747e+01 1 -1 0