LAMMPS data file via write_data, version 11 Aug 2017, timestep = 5000000

7440 atoms
7 atom types
4320 bonds
5 bond types
2520 angles
3 angle types
600 dihedrals
2 dihedral types

0.0000000000000000e+00 4.5679949999999998e+01 xlo xhi
0.0000000000000000e+00 4.6885919999999999e+01 ylo yhi
0.0000000000000000e+00 6.5000000000000000e+01 zlo zhi

Masses

1 1.0079
2 15.9994
3 22.9898
4 15.9994
5 12.011
6 1.0079
7 107.868

Angle Coeffs # harmonic

1 50 109.471
2 50 104.51
3 55 104.52

Dihedral Coeffs # charmm

1 0.111111 3 0 0
2 0.333333 3 0 0

Atoms # full

6289 444 7 0.0000000000000000e+00 1.6907200000000000e+00 0.0000000000000000e+00 0.0000000000000000e+00 0 0 0
6290 444 7 0.0000000000000000e+00 4.2285000000000004e+00 1.4651900000000000e+00 0.0000000000000000e+00 0 0 0
6291 444 7 -2.7779999999999999e-02 1.6907700000000001e+00 0.0000000000000000e+00 7.1781499999999996e+00 0 0 0
6292 444 7 -2.7779999999999999e-02 4.2285500000000003e+00 1.4651900000000000e+00 7.1781499999999996e+00 0 0 0
6293 444 7 0.0000000000000000e+00 2.5366499999999998e+00 1.4651900000000000e+00 2.3926400000000001e+00 0 0 0
6294 444 7 0.0000000000000000e+00 5.0744199999999999e+00 0.0000000000000000e+00 2.3926400000000001e+00 0 0 0
6295 444 7 0.0000000000000000e+00 8.4509000000000001e-01 1.4651900000000000e+00 4.7824200000000001e+00 0 0 0
6296 444 7 0.0000000000000000e+00 3.3828600000000000e+00 0.0000000000000000e+00 4.7824499999999999e+00 0 0 0
6297 444 7 0.0000000000000000e+00 1.6907200000000000e+00 2.9303699999999999e+00 0.0000000000000000e+00 0 0 0
6298 444 7 0.0000000000000000e+00 4.2285000000000004e+00 4.3955599999999997e+00 0.0000000000000000e+00 0 0 0
6299 444 7 -2.7779999999999999e-02 1.6907700000000001e+00 2.9303699999999999e+00 7.1781899999999998e+00 0 0 0
6300 444 7 -2.7779999999999999e-02 4.2285500000000003e+00 4.3955599999999997e+00 7.1781600000000001e+00 0 0 0
6301 444 7 0.0000000000000000e+00 2.5366499999999998e+00 4.3955599999999997e+00 2.3926400000000001e+00 0 0 0
6302 444 7 0.0000000000000000e+00 5.0744199999999999e+00 2.9303699999999999e+00 2.3926400000000001e+00 0 0 0
6303 444 7 0.0000000000000000e+00 8.4509000000000001e-01 4.3955599999999997e+00 4.7824499999999999e+00 0 0 0
6304 444 7 0.0000000000000000e+00 3.3828700000000000e+00 2.9303699999999999e+00 4.7824400000000002e+00 0 0 0
6305 444 7 0.0000000000000000e+00 1.6907200000000000e+00 5.8607399999999998e+00 0.0000000000000000e+00 0 0 0
6306 444 7 0.0000000000000000e+00 4.2285000000000004e+00 7.3259299999999996e+00 0.0000000000000000e+00 0 0 0
6307 444 7 -2.7779999999999999e-02 1.6907700000000001e+00 5.8607399999999998e+00 7.1781499999999996e+00 0 0 0
6308 444 7 -2.7779999999999999e-02 4.2285500000000003e+00 7.3259299999999996e+00 7.1781499999999996e+00 0 0 0
6309 444 7 0.0000000000000000e+00 2.5366499999999998e+00 7.3259299999999996e+00 2.3926400000000001e+00 0 0 0
6310 444 7 0.0000000000000000e+00 5.0744199999999999e+00 5.8607399999999998e+00 2.3926400000000001e+00 0 0 0
6311 444 7 0.0000000000000000e+00 8.4509000000000001e-01 7.3259299999999996e+00 4.7824200000000001e+00 0 0 0
6312 444 7 0.0000000000000000e+00 3.3828600000000000e+00 5.8607399999999998e+00 4.7824499999999999e+00 0 0 0
6417 444 7 0.0000000000000000e+00 6.7662699999999996e+00 0.0000000000000000e+00 0.0000000000000000e+00 0 0 0
6418 444 7 0.0000000000000000e+00 9.3040500000000002e+00 1.4651900000000000e+00 0.0000000000000000e+00 0 0 0
6419 444 7 -2.7779999999999999e-02 6.7663200000000003e+00 0.0000000000000000e+00 7.1781499999999996e+00 0 0 0
6420 444 7 -2.7779999999999999e-02 9.3041000000000000e+00 1.4651900000000000e+00 7.1781499999999996e+00 0 0 0
6421 444 7 0.0000000000000000e+00 7.6121999999999996e+00 1.4651900000000000e+00 2.3926400000000001e+00 0 0 0
6422 444 7 0.0000000000000000e+00 1.0149970000000000e+01 0.0000000000000000e+00 2.3926400000000001e+00 0 0 0
6423 444 7 0.0000000000000000e+00 5.9206399999999997e+00 1.4651900000000000e+00 4.7824200000000001e+00 0 0 0
6424 444 7 0.0000000000000000e+00 8.4584100000000007e+00 0.0000000000000000e+00 4.7824499999999999e+00 0 0 0
6425 444 7 0.0000000000000000e+00 6.7662699999999996e+00 2.9303699999999999e+00 0.0000000000000000e+00 0 0 0
6426 444 7 0.0000000000000000e+00 9.3040500000000002e+00 4.3955599999999997e+00 0.0000000000000000e+00 0 0 0
6427 444 7 -2.7779999999999999e-02 6.7663200000000003e+00 2.9303699999999999e+00 7.1781899999999998e+00 0 0 0
6428 444 7 -2.7779999999999999e-02 9.3041000000000000e+00 4.3955599999999997e+00 7.1781600000000001e+00 0 0 0
6429 444 7 0.0000000000000000e+00 7.6121999999999996e+00 4.3955599999999997e+00 2.3926400000000001e+00 0 0 0
6430 444 7 0.0000000000000000e+00 1.0149970000000000e+01 2.9303699999999999e+00 2.3926400000000001e+00 0 0 0
6431 444 7 0.0000000000000000e+00 5.9206399999999997e+00 4.3955599999999997e+00 4.7824499999999999e+00 0 0 0
6432 444 7 0.0000000000000000e+00 8.4584200000000003e+00 2.9303699999999999e+00 4.7824400000000002e+00 0 0 0
6551 444 7 0.0000000000000000e+00 1.0996190000000000e+01 1.4651900000000000e+00 4.7824200000000001e+00 0 0 0
6559 444 7 0.0000000000000000e+00 1.0996190000000000e+01 4.3955599999999997e+00 4.7824499999999999e+00 0 0 0
6433 444 7 0.0000000000000000e+00 6.7662699999999996e+00 5.8607399999999998e+00 0.0000000000000000e+00 0 0 0
6434 444 7 0.0000000000000000e+00 9.3040500000000002e+00 7.3259299999999996e+00 0.0000000000000000e+00 0 0 0
6435 444 7 -2.7779999999999999e-02 6.7663200000000003e+00 5.8607399999999998e+00 7.1781499999999996e+00 0 0 0
6436 444 7 -2.7779999999999999e-02 9.3041000000000000e+00 7.3259299999999996e+00 7.1781499999999996e+00 0 0 0
6437 444 7 0.0000000000000000e+00 7.6121999999999996e+00 7.3259299999999996e+00 2.3926400000000001e+00 0 0 0
6438 444 7 0.0000000000000000e+00 1.0149970000000000e+01 5.8607399999999998e+00 2.3926400000000001e+00 0 0 0
6439 444 7 0.0000000000000000e+00 5.9206399999999997e+00 7.3259299999999996e+00 4.7824200000000001e+00 0 0 0
6440 444 7 0.0000000000000000e+00 8.4584100000000007e+00 5.8607399999999998e+00 4.7824499999999999e+00 0 0 0
6567 444 7 0.0000000000000000e+00 1.0996190000000000e+01 7.3259299999999996e+00 4.7824200000000001e+00 0 0 0
3836 444 1 4.1499999999999998e-01 1.0794075699680153e+01 3.3794339261314250e+00 1.4781198000591642e+01 0 2 0
4180 444 2 -8.2999999999999996e-01 1.0283260090627182e+01 5.8888371043431764e+00 1.0146090812217308e+01 4 1 0
5998 444 2 -8.2999999999999996e-01 1.2896006690101032e+00 3.8686135459074982e+00 1.0474440243510886e+01 1 1 0
5870 444 1 4.1499999999999998e-01 2.7947950347050403e+00 4.5897569369378015e+00 1.4863448153147086e+01 5 2 0
5869 444 2 -8.2999999999999996e-01 3.0423787157749227e+00 4.7894356392565598e+00 1.3960640026458982e+01 5 2 0
5871 444 1 4.1499999999999998e-01 2.5765584325452400e+00 4.1393609069922528e+00 1.3434668468143638e+01 5 2 0
3528 444 1 4.1499999999999998e-01 5.9689654624469037e+00 3.2598441060905099e+00 1.4299277674179201e+01 0 0 0
5999 444 1 4.1499999999999998e-01 4.2435534113516521e-01 3.8197152387952404e+00 1.0068002930046870e+01 1 1 0
6280 444 2 -8.2999999999999996e-01 3.5598902206257774e+00 9.0641522634961402e-01 1.1112651082597671e+01 -1 -1 0
6000 444 1 4.1499999999999998e-01 1.2148296212711747e+00 3.3317799652128155e+00 1.1263396008885749e+01 1 1 0
3526 444 2 -8.2999999999999996e-01 6.2109224579037496e+00 3.6774323242534646e+00 1.5125902350064651e+01 0 0 0
3527 444 1 4.1499999999999998e-01 7.0523547083770000e+00 4.0966676417741716e+00 1.4945721045153231e+01 0 0 0
1953 444 1 4.1499999999999998e-01 2.1482890264098140e+00 6.4500171732057465e+00 1.4615280141052100e+01 4 1 0
4181 444 1 4.1499999999999998e-01 9.3985368367883755e+00 5.8934487132875066e+00 9.7807481590122620e+00 4 1 0
4182 444 1 4.1499999999999998e-01 1.0523762564996783e+01 4.9629919860111151e+00 1.0180763332584855e+01 4 1 0
3587 444 1 4.1499999999999998e-01 7.3752741752228816e+00 4.2725960636561169e+00 1.2129147190600486e+01 -1 0 0
3588 444 1 4.1499999999999998e-01 8.2959410948537897e+00 5.4552607785212315e+00 1.1915675204816537e+01 -1 0 0
553 444 2 -8.2999999999999996e-01 7.9131540411863179e+00 7.0914903517315757e+00 1.2863737810102489e+01 -1 1 0
3586 444 2 -8.2999999999999996e-01 8.1184314193036382e+00 4.5680888678469049e+00 1.1603188620683044e+01 -1 0 0
2300 444 1 4.1499999999999998e-01 8.6675142731848300e+00 3.2235895087864153e+00 1.0725350280936215e+01 6 5 0
728 444 1 4.1499999999999998e-01 3.1568808464186704e+00 4.1363794987540201e+00 1.0166926236362800e+01 2 0 0
1774 444 2 -8.2999999999999996e-01 5.0829530338299715e+00 6.6716255004596379e+00 1.0537515208192191e+01 4 -4 0
1951 444 2 -8.2999999999999996e-01 1.4121553971582337e+00 6.8348577377510615e+00 1.5090924086242659e+01 4 1 0
727 444 2 -8.2999999999999996e-01 4.0744723726363175e+00 4.3694570391933745e+00 1.0308111409968795e+01 2 0 0
729 444 1 4.1499999999999998e-01 4.5429796843500583e+00 3.5357892168744440e+00 1.0266508951151092e+01 2 0 0
5573 444 1 4.1499999999999998e-01 3.9425324055253621e+00 9.7614221620552710e-01 1.5809732075466551e+01 -1 -3 0
1775 444 1 4.1499999999999998e-01 4.7307513721357326e+00 5.7970790853224772e+00 1.0372123536484084e+01 4 -4 0
1776 444 1 4.1499999999999998e-01 5.4982108467845183e+00 6.9230740889311013e+00 9.7125507319006381e+00 4 -4 0
6281 444 1 4.1499999999999998e-01 2.9318138382233423e+00 9.2520085003008412e-01 1.0390571051930783e+01 -1 -1 0
5972 444 1 4.1499999999999998e-01 4.4673356984811328e+00 2.6833937497329066e+00 1.2364791435086209e+01 2 3 0
5971 444 2 -8.2999999999999996e-01 5.2051950061705030e+00 2.5831631219040281e+00 1.2966247609615634e+01 2 3 0
2445 444 1 4.1499999999999998e-01 1.0456248134102607e+01 2.8265992433426494e+00 1.0034469014275043e+01 -2 1 0
4562 444 1 4.1499999999999998e-01 1.1035973289981282e+01 5.7733978888368780e+00 1.1795598735854290e+01 1 6 0
2301 444 1 4.1499999999999998e-01 7.8458885460939785e+00 1.9708673798663616e+00 1.0507374236755309e+01 6 5 0
2299 444 2 -8.2999999999999996e-01 8.7315468371893434e+00 2.3212979917312349e+00 1.0412298154310839e+01 6 5 0
2293 444 2 -8.2999999999999996e-01 5.8346397373122860e+00 9.0579826276696929e-01 1.5605223590626208e+01 0 -4 0
5973 444 1 4.1499999999999998e-01 5.7382633018711173e+00 1.8890726340895256e+00 1.2578549741290674e+01 2 3 0
1554 444 1 4.1499999999999998e-01 4.6890922499574152e+00 5.4544232503982943e+00 1.3332161636475194e+01 6 -3 0
2294 444 1 4.1499999999999998e-01 5.8225424975201747e+00 1.6489422335424506e+00 1.5002046379261687e+01 0 -4 0
1536 444 1 4.1499999999999998e-01 1.7766263560582285e+00 8.3688157339456781e-01 1.5320813273734213e+01 -1 5 0
5711 444 1 4.1499999999999998e-01 4.5213624907664018e-01 2.0419903821412050e-01 1.0564124132099296e+01 -6 -1 0
795 444 1 4.1499999999999998e-01 1.6031022887427480e+00 5.7808458827802118e+00 1.0509276723105142e+01 2 4 0
1552 444 2 -8.2999999999999996e-01 5.4413819014776790e+00 6.0334340472005668e+00 1.3209529931717231e+01 6 -3 0
554 444 1 4.1499999999999998e-01 7.0401595296515671e+00 6.8472320338649384e+00 1.3171066673962077e+01 -1 1 0
2344 444 2 -8.2999999999999996e-01 8.4048594462465758e+00 5.1597410105439669e+00 1.4637275885979037e+01 1 -1 0
2345 444 1 4.1499999999999998e-01 8.5712525652612381e+00 6.0300449682457149e+00 1.4275176109416169e+01 1 -1 0
5965 444 2 -8.2999999999999996e-01 1.0656892565298509e+01 3.0776689069401031e+00 1.3070804839339528e+01 1 0 0
5966 444 1 4.1499999999999998e-01 9.7911687932886480e+00 2.8606991693340769e+00 1.3416751234372278e+01 1 0 0
1588 444 2 -8.2999999999999996e-01 2.1091998414437025e+00 2.5367191815480052e+00 1.2687546268058552e+01 3 -3 0
1534 444 2 -8.2999999999999996e-01 1.3676296245098321e+00 7.0051399802207970e-01 1.4466203273278632e+01 -1 5 0
5967 444 1 4.1499999999999998e-01 1.0676704888790805e+01 2.6739251715799202e+00 1.2203146503542776e+01 1 0 0
1590 444 1 4.1499999999999998e-01 1.5429931448419689e+00 1.9077156107987590e+00 1.3134755487670743e+01 3 -3 0
2346 444 1 4.1499999999999998e-01 8.9760384271703302e+00 5.1053660528672511e+00 1.5403454883364942e+01 1 -1 0
1589 444 1 4.1499999999999998e-01 2.7078043158214853e+00 1.9964117983991569e+00 1.2171821111029384e+01 3 -3 0
4563 444 1 4.1499999999999998e-01 1.1201466613873006e+01 4.5067068401160517e+00 1.2608003099843810e+01 1 6 0
3835 444 2 -8.2999999999999996e-01 1.0614178130647767e+01 3.1383439137135500e+00 1.5689903013838565e+01 0 2 0
2824 444 2 -8.2999999999999996e-01 1.1368581917740288e+01 7.3304465333240199e+00 1.5892768969875721e+01 -2 -3 0
2443 444 2 -8.2999999999999996e-01 1.1288712994389137e+01 3.2422886720540025e+00 1.0259050663270195e+01 -2 1 0
1026 444 1 4.1499999999999998e-01 6.3051815312680421e+00 5.3585399842357953e-02 1.1307684538811294e+01 0 4 0
793 444 2 -8.2999999999999996e-01 1.2036149617981313e+00 6.6503732485703964e+00 1.0485541316466859e+01 2 4 0
1553 444 1 4.1499999999999998e-01 5.3576075667412448e+00 6.3484004680988839e+00 1.2309524561331312e+01 6 -3 0
5234 444 1 4.1499999999999998e-01 5.1363922685526076e+00 7.2990483511106374e+00 1.4471224223542634e+01 0 6 0
1254 444 1 4.1499999999999998e-01 9.4800604959286012e+00 8.4387476558531593e-01 1.0984904025947662e+01 6 5 0
1252 444 2 -8.2999999999999996e-01 1.0199674149495898e+01 2.8832412923754092e-01 1.1284490753758602e+01 6 5 0
794 444 1 4.1499999999999998e-01 1.9297723744964246e+00 7.2428634120553799e+00 1.0290907042641599e+01 2 4 0
1952 444 1 4.1499999999999998e-01 1.0192461199342748e+00 7.4479975467653183e+00 1.4469704357815193e+01 4 1 0
1024 444 2 -8.2999999999999996e-01 6.8164414127631874e+00 6.6249468421037894e-01 1.1840671133971108e+01 0 4 0
3837 444 1 4.1499999999999998e-01 1.1077936303991578e+01 3.7954941389744228e+00 1.6208857717256773e+01 0 2 0
2883 444 1 4.1499999999999998e-01 5.2439524238938562e-01 7.6495912039612142e+00 1.1753368504432455e+01 -2 1 0
1025 444 1 4.1499999999999998e-01 7.4064489557153408e+00 1.0263112815098753e-01 1.2345326081353443e+01 0 4 0
5981 444 1 4.1499999999999998e-01 1.0531547916049666e+01 7.5798347214674404e+00 1.0330396724070123e+01 -1 -4 0
1253 444 1 4.1499999999999998e-01 1.0780750488154727e+01 2.1902922989974735e-01 1.0527007781082142e+01 6 5 0
2826 444 1 4.1499999999999998e-01 1.1395401132619300e+01 6.8410863114062090e+00 1.5070552831325941e+01 -2 -3 0
4156 444 2 -8.2999999999999996e-01 2.3927544027508163e+00 3.8933210833562892e+00 1.6617533960154837e+01 3 0 0
2295 444 1 4.1499999999999998e-01 6.4747800788712855e+00 1.1497322323398669e+00 1.6273765978130392e+01 0 -4 0
2640 444 1 4.1499999999999998e-01 5.8800917440378020e-01 3.2960937640875518e+00 2.2958065868660331e+01 1 1 0
6073 444 2 -8.2999999999999996e-01 4.8590173290434041e-01 2.5393103921316258e+00 1.8673856799376388e+01 -2 4 0
4026 444 1 4.1499999999999998e-01 1.1139846441739959e+01 7.7134691086167875e+00 1.8981775281834679e+01 -5 4 0
5572 444 2 -8.2999999999999996e-01 3.2850537923373859e+00 1.2157197027896156e+00 1.6462844814226433e+01 -1 -3 0
5574 444 1 4.1499999999999998e-01 3.4604879558856045e+00 6.3581277689422944e-01 1.7203899940599030e+01 -1 -3 0
4157 444 1 4.1499999999999998e-01 2.2649043535004760e+00 2.9659100631837658e+00 1.6418045222808512e+01 3 0 0
4137 444 1 4.1499999999999998e-01 2.5197536064860206e+00 1.6290679433566231e+00 2.0406466163545698e+01 -4 3 0
2240 444 1 4.1499999999999998e-01 1.0062690073849652e+01 7.7981030615933227e+00 2.3736395759115570e+01 -5 5 0
4136 444 1 4.1499999999999998e-01 1.9694881203485679e+00 1.7496447289568500e+00 2.1811658037819072e+01 -4 3 0
5146 444 2 -8.2999999999999996e-01 2.2583324125678770e+00 2.5369532154493926e+00 2.3453113662534783e+01 -6 -1 0
5147 444 1 4.1499999999999998e-01 3.1349288016045946e+00 2.8333542446879747e+00 2.3697974689965715e+01 -6 -1 0
3624 444 1 4.1499999999999998e-01 3.2654755220999054e+00 7.0519680069966810e+00 1.9845264554026443e+01 0 0 0
2459 444 1 4.1499999999999998e-01 5.7809925613483326e+00 4.6921323574170719e+00 2.0845633578709442e+01 0 -3 0
3638 444 1 4.1499999999999998e-01 1.0933485361948739e+01 2.6318635941030517e+00 1.9058506149752635e+01 5 2 0
4509 444 1 4.1499999999999998e-01 6.4747995388433690e+00 1.5576692544525954e+00 2.1175837461587992e+01 -2 0 0
3572 444 1 4.1499999999999998e-01 1.1279131177515490e+01 5.1732141058431456e+00 1.9428048209452847e+01 1 0 0
2202 444 1 4.1499999999999998e-01 4.3160564824618830e-01 6.9643751432895948e+00 1.8011776386303460e+01 -2 -3 0
3571 444 2 -8.2999999999999996e-01 1.0331891864497999e+01 5.0415662003375505e+00 1.9468530671114699e+01 1 0 0
4507 444 2 -8.2999999999999996e-01 5.6469658201215935e+00 1.3453939139743338e+00 2.1606955432232660e+01 -2 0 0
5078 444 1 4.1499999999999998e-01 8.9327704368622705e+00 1.4415149932124269e+00 1.7605317566047379e+01 2 -3 0
5077 444 2 -8.2999999999999996e-01 8.0459206832451322e+00 1.0880596964575058e+00 1.7536041806511214e+01 2 -3 0
299 444 1 4.1499999999999998e-01 7.5377707063857748e+00 7.5035118671693120e+00 2.3642092711544443e+01 4 -1 0
2251 444 2 -8.2999999999999996e-01 1.0588833876601356e+01 2.6258760613027615e-01 2.1737474859785422e+01 5 4 0
2225 444 1 4.1499999999999998e-01 4.9234614643884616e+00 2.3031490653401279e+00 2.2873158953754750e+01 -5 1 0
4508 444 1 4.1499999999999998e-01 5.6505428731739933e+00 3.9073739076847674e-01 2.1676603722852956e+01 -2 0 0
5079 444 1 4.1499999999999998e-01 7.6330529293494722e+00 1.3105206309422819e+00 1.8370477695865652e+01 2 -3 0
2274 444 1 4.1499999999999998e-01 7.2009647699237123e+00 3.1939759159702503e+00 2.0258682021813318e+01 -2 5 0
2272 444 2 -8.2999999999999996e-01 7.8660376078800782e+00 2.5719402689717930e+00 2.0553608250185267e+01 -2 5 0
2229 444 1 4.1499999999999998e-01 8.1842109186699847e+00 2.1402079968291035e+00 2.3654533797266474e+01 -6 1 0
3267 444 1 4.1499999999999998e-01 3.4700465240447582e+00 4.9421177390554476e+00 2.0910012829121726e+01 -5 -1 0
3266 444 1 4.1499999999999998e-01 3.4010076696199514e+00 4.4958494807923373e+00 1.9465030863193746e+01 -5 -1 0
3265 444 2 -8.2999999999999996e-01 2.9818118153591144e+00 5.0787114701906582e+00 2.0098101213879268e+01 -5 -1 0
2227 444 2 -8.2999999999999996e-01 8.0720466946133058e+00 3.0897543468696522e+00 2.3609675777055010e+01 -6 1 0
2228 444 1 4.1499999999999998e-01 8.0793181216185310e+00 3.2882998986567267e+00 2.2673321990256817e+01 -6 1 0
5242 444 2 -8.2999999999999996e-01 4.0348572620030811e+00 2.1692245327460662e+00 1.9704474182919085e+01 -9 -2 0
2458 444 2 -8.2999999999999996e-01 6.4083247271164474e+00 4.6075570744313215e+00 2.0127627150963892e+01 0 -3 0
4476 444 1 4.1499999999999998e-01 5.7176751595575190e+00 4.6608716610760785e+00 1.6446316442458439e+01 4 1 0
5243 444 1 4.1499999999999998e-01 4.1449700872850919e+00 1.5645479912031872e+00 1.8970666479220906e+01 -9 -2 0
4926 444 1 4.1499999999999998e-01 5.5542510603535202e+00 5.8887222486938509e+00 2.2432790186905159e+01 4 1 0
4529 444 1 4.1499999999999998e-01 8.2653405070537755e-01 5.9986047610620412e+00 2.1468168493636995e+01 -6 -1 0
4924 444 2 -8.2999999999999996e-01 4.8567382887539452e+00 5.3225135830354242e+00 2.2102462209397146e+01 4 1 0
5244 444 1 4.1499999999999998e-01 4.5729062269537115e+00 1.7983302114851660e+00 2.0403883899462446e+01 -9 -2 0
4925 444 1 4.1499999999999998e-01 4.5338867871022375e+00 4.8624844429944565e+00 2.2877299149586715e+01 4 1 0
4474 444 2 -8.2999999999999996e-01 5.3112959806243527e+00 5.1109009289004144e+00 1.7186965795553913e+01 4 1 0
2273 444 1 4.1499999999999998e-01 8.5752575731102016e+00 2.6589490667981859e+00 1.9916687279715099e+01 -2 5 0
3573 444 1 4.1499999999999998e-01 1.0126882837878599e+01 5.0592004163258366e+00 2.0403353190061797e+01 1 0 0
4158 444 1 4.1499999999999998e-01 3.3428859323041351e+00 4.0093977323942971e+00 1.6620491155071811e+01 3 0 0
3791 444 1 4.1499999999999998e-01 1.0481821784190997e+01 5.8154162778189755e-01 1.8883501031223830e+01 3 2 0
1523 444 1 4.1499999999999998e-01 5.0953972765563327e+00 6.9410506537381602e+00 1.7505703930460864e+01 5 1 0
2460 444 1 4.1499999999999998e-01 6.8825942365417374e+00 5.4389944057915711e+00 2.0124130997723871e+01 0 -3 0
3637 444 2 -8.2999999999999996e-01 1.0327656511903861e+01 2.2211564218694666e+00 1.8441639711298045e+01 5 2 0
5051 444 1 4.1499999999999998e-01 1.0998466897729624e+01 3.3839243216675725e+00 2.2376894551165268e+01 -2 -3 0
6075 444 1 4.1499999999999998e-01 1.1771876609255438e+00 2.9996043708812299e+00 1.8197952211716153e+01 -2 4 0
3639 444 1 4.1499999999999998e-01 1.0582652251059191e+01 2.5691018343263594e+00 1.7587155449662180e+01 5 2 0
6074 444 1 4.1499999999999998e-01 9.2592318211899161e-01 2.1720423329417695e+00 1.9440491190478983e+01 -2 4 0
4475 444 1 4.1499999999999998e-01 5.9777705708842852e+00 5.0928286937372516e+00 1.7873782243419164e+01 4 1 0
5089 444 2 -8.2999999999999996e-01 8.7556944906401935e+00 3.1352750246412359e-01 2.3674124367349805e+01 1 0 0
298 444 2 -8.2999999999999996e-01 6.7263781679933521e+00 7.3238600116467030e+00 2.3167119814559356e+01 4 -1 0
4135 444 2 -8.2999999999999996e-01 1.7053066838316442e+00 1.5815755495933299e+00 2.0907118000274821e+01 -4 3 0
2669 444 1 4.1499999999999998e-01 2.1872257908859387e+00 5.6063486899493444e+00 1.8285876236449340e+01 2 3 0
774 444 1 4.1499999999999998e-01 9.8989295510712765e+00 5.3378393483172450e+00 1.7885838177848179e+01 -5 -2 0
2224 444 2 -8.2999999999999996e-01 4.8340293241614773e+00 2.8423065850572442e+00 2.3658997728023472e+01 -5 1 0
5148 444 1 4.1499999999999998e-01 1.8104409526253340e+00 2.3973014033886715e+00 2.4287453183903036e+01 -6 -1 0
4952 444 1 4.1499999999999998e-01 9.3149703293522990e+00 5.7426980702002552e+00 2.3046735781981869e+01 -6 3 0
4953 444 1 4.1499999999999998e-01 8.8004467200210943e+00 5.9854642110260077e+00 2.1643801608669442e+01 -6 3 0
4951 444 2 -8.2999999999999996e-01 9.4833343640028271e+00 5.5236771075080444e+00 2.2130266978178568e+01 -6 3 0
2226 444 1 4.1499999999999998e-01 5.7340811917092376e+00 3.0152251427741725e+00 2.3935108899323279e+01 -5 1 0
2670 444 1 4.1499999999999998e-01 1.9199610088108463e+00 6.0784001079230707e+00 1.6872499997623134e+01 2 3 0
4528 444 2 -8.2999999999999996e-01 3.8540341056853439e-01 6.8395109760368058e+00 2.1347701966167413e+01 -6 -1 0
4792 444 2 -8.2999999999999996e-01 7.7129682136153921e+00 6.9055449858163156e+00 1.9957917179850039e+01 4 0 0
773 444 1 4.1499999999999998e-01 8.8344125656533663e+00 6.1235774054152978e+00 1.7150097793828166e+01 -5 -2 0
2825 444 1 4.1499999999999998e-01 1.0782590071478401e+01 6.8234904391490607e+00 1.6454766686720127e+01 -2 -3 0
772 444 2 -8.2999999999999996e-01 9.6086181997052051e+00 5.5793755237874318e+00 1.7006286533999997e+01 -5 -2 0
4793 444 1 4.1499999999999998e-01 8.3842596445864643e+00 7.1340165325817875e+00 1.9314954770598188e+01 4 0 0
2252 444 1 4.1499999999999998e-01 1.0892640102173138e+01 1.1519565562959675e+00 2.1919013728548336e+01 5 4 0
2668 444 2 -8.2999999999999996e-01 1.9894855935581195e+00 6.3909951831968357e+00 1.7774543912692046e+01 2 3 0
2253 444 1 4.1499999999999998e-01 9.7916728936745798e+00 1.7010697755935475e-01 2.2259215611697076e+01 5 4 0
4270 444 2 -8.2999999999999996e-01 7.7900106535385110e+00 7.7394556867473812e+00 1.7081027681006780e+01 3 -4 0
4271 444 1 4.1499999999999998e-01 6.8784726851594291e+00 7.6376196219815853e+00 1.7354816433858630e+01 3 -4 0
4794 444 1 4.1499999999999998e-01 7.5777254508229106e+00 7.7094191756450714e+00 2.0459642345016753e+01 4 0 0
5091 444 1 4.1499999999999998e-01 9.3800801419467614e+00 5.7384539708871717e-02 2.4352921415469272e+01 1 0 0
6271 444 2 -8.2999999999999996e-01 3.9062636440775167e-01 6.5440663155957974e+00 3.2194273175021266e+01 2 -2 0
2755 444 2 -8.2999999999999996e-01 4.9471433126132941e-01 6.4372237051769226e+00 2.7848622377447022e+01 2 3 0
285 444 6 2.9999999999999999e-02 1.1002302578871614e+01 2.3070931965692258e+00 2.8786888673800817e+01 1 0 0
284 444 6 2.9999999999999999e-02 1.1291769306018633e+01 3.6550960115709263e+00 2.7524590722537738e+01 1 0 0
1997 444 1 4.1499999999999998e-01 1.6974451471783663e+00 1.2379569103490637e+00 3.2075341463781797e+01 -1 0 0
3894 444 1 4.1499999999999998e-01 2.0611606758833831e+00 7.3126162045375382e+00 2.7854201764824737e+01 -1 2 0
3726 444 1 4.1499999999999998e-01 6.5525851601835301e+00 7.2051447458450024e+00 3.0051582247269994e+01 1 4 0
6154 444 2 -8.2999999999999996e-01 1.0696642303454542e+01 3.4236649274110645e-02 2.6572192098711710e+01 -4 5 0
2154 444 1 4.1499999999999998e-01 2.1201030389822806e-01 3.0347729494752294e+00 2.5979276611530707e+01 -6 -2 0
3433 444 2 -8.2999999999999996e-01 1.1268794547790151e+01 7.3932258341936077e+00 2.7814152073653457e+01 -2 2 0
3409 444 2 -8.2999999999999996e-01 2.5405853230254887e+00 4.3191911063271216e-01 2.7104957767571772e+01 -2 -2 0
3724 444 2 -8.2999999999999996e-01 7.2892397712744526e+00 7.4983191545555199e+00 3.0587884948199164e+01 1 4 0
2336 444 1 4.1499999999999998e-01 3.5116277437370234e+00 7.0081257446028786e+00 3.0517662532618061e+01 -6 -1 0
3893 444 1 4.1499999999999998e-01 3.0498801049318001e+00 7.6167028986351264e+00 2.6748823927783786e+01 -1 2 0
3082 444 2 -8.2999999999999996e-01 4.6328011092533625e+00 6.7242515615736416e+00 2.5721251733777859e+01 3 2 0
4958 444 1 4.1499999999999998e-01 7.6442255555667424e+00 5.3979493290496872e-01 2.7049754039285705e+01 -2 0 0
3435 444 1 4.1499999999999998e-01 1.0428317958230412e+01 7.2390902922658915e+00 2.7382789511266104e+01 -2 2 0
2591 444 1 4.1499999999999998e-01 1.7285510941828601e+00 4.6396472855230639e+00 2.8599558137241921e+01 4 1 0
2590 444 2 -8.2999999999999996e-01 2.5863658934284470e+00 4.5272433569161725e+00 2.9009132642400356e+01 4 1 0
2592 444 1 4.1499999999999998e-01 3.2092362286428502e+00 4.6031702526681295e+00 2.8286290596997855e+01 4 1 0
4959 444 1 4.1499999999999998e-01 9.0670257178829043e+00 9.9539312798337365e-01 2.7294630990280272e+01 -2 0 0
4735 444 2 -8.2999999999999996e-01 4.1000089396647734e+00 4.4723355059850798e+00 2.6805508367535634e+01 1 8 0
4737 444 1 4.1499999999999998e-01 4.7247015909663812e+00 3.8693469096407926e+00 2.6402524886819723e+01 1 8 0
4941 444 1 4.1499999999999998e-01 7.4177774745007650e+00 3.4440547589264594e+00 2.5076154224566196e+01 0 1 0
264 444 5 1.4000000000000001e-01 1.0316111652440926e+01 4.4628342553496818e+00 2.9895455895833397e+01 1 0 0
609 444 1 4.1499999999999998e-01 2.2885100690823017e+00 2.1971730269535525e+00 2.6880528802789954e+01 3 0 0
583 444 2 -8.2999999999999996e-01 6.9373092488343922e+00 4.5115862771965194e+00 2.8313604756142631e+01 -3 -2 0
607 444 2 -8.2999999999999996e-01 1.9996163057432224e+00 2.9019713318814029e+00 2.6300845802884595e+01 3 0 0
2614 444 2 -8.2999999999999996e-01 6.9323407044075340e+00 1.9398278324830325e+00 2.9802528065297899e+01 0 3 0
277 444 6 2.9999999999999999e-02 1.0538757060855792e+01 5.5705998589455792e+00 3.1802774368025524e+01 1 0 0
262 444 5 1.4000000000000001e-01 1.0624788445142247e+01 5.7517257021366870e+00 3.0761419427182435e+01 1 0 0
5941 444 2 -8.2999999999999996e-01 8.5682483558935321e+00 6.3758305469376824e+00 2.7378394026834776e+01 -6 4 0
4940 444 1 4.1499999999999998e-01 7.1374937469251227e+00 2.5440203371872068e+00 2.6260752932539368e+01 0 1 0
4939 444 2 -8.2999999999999996e-01 6.9988065863030773e+00 3.4339685664585318e+00 2.5936731665898794e+01 0 1 0
276 444 6 2.9999999999999999e-02 9.8671646777907256e+00 6.4595072745049045e+00 3.0579033719423009e+01 1 0 0
2615 444 1 4.1499999999999998e-01 7.6039558422152185e+00 1.2783050561548670e+00 2.9968517356274678e+01 0 3 0
2616 444 1 4.1499999999999998e-01 6.1798543586357244e+00 1.4426565977264378e+00 2.9481877734753859e+01 0 3 0
281 444 6 2.9999999999999999e-02 9.7543601942601175e+00 4.7628848272366913e+00 2.9085396041104751e+01 1 0 0
280 444 6 2.9999999999999999e-02 9.8925189590746871e+00 3.6988458499570376e+00 3.0461274747283582e+01 1 0 0
585 444 1 4.1499999999999998e-01 6.8680344835995735e+00 4.2263196523343360e+00 2.7402530760163074e+01 -3 -2 0
584 444 1 4.1499999999999998e-01 6.6974059318877108e+00 3.7393460387500768e+00 2.8825779774550732e+01 -3 -2 0
5064 444 1 4.1499999999999998e-01 4.5036182169355667e+00 1.0025461294572156e+00 2.8034803572058834e+01 5 0 0
608 444 1 4.1499999999999998e-01 2.6419740309867463e+00 3.5993397342576010e+00 2.6432323947025193e+01 3 0 0
5062 444 2 -8.2999999999999996e-01 4.8677517287714940e+00 6.6724116729895266e-01 2.8854077362798858e+01 5 0 0
5063 444 1 4.1499999999999998e-01 4.1411754429162464e+00 1.9969315944750257e-01 2.9266045869874485e+01 5 0 0
4957 444 2 -8.2999999999999996e-01 8.2072300425015019e+00 1.3133060093355746e+00 2.7019104157088293e+01 -2 0 0
4736 444 1 4.1499999999999998e-01 4.3082088420793241e+00 5.3246865533835459e+00 2.6422908843491562e+01 1 8 0
2337 444 1 4.1499999999999998e-01 2.8154730320371728e+00 5.6749706582824437e+00 3.0344569276577364e+01 -6 -1 0
4287 444 1 4.1499999999999998e-01 4.8245786602162921e+00 3.2804353416605516e+00 3.1932587958849961e+01 6 7 0
6203 444 1 4.1499999999999998e-01 7.1285815702626207e+00 4.7017910324567520e+00 3.0658586281920794e+01 2 -2 0
6204 444 1 4.1499999999999998e-01 6.8956676956494514e+00 3.2193218727579338e+00 3.0858414432821522e+01 2 -2 0
6202 444 2 -8.2999999999999996e-01 6.7882444138672131e+00 4.0672791164314619e+00 3.1289297812729572e+01 2 -2 0
4286 444 1 4.1499999999999998e-01 4.7345319330200208e+00 2.2845413584855501e+00 3.0795934327463932e+01 6 7 0
4285 444 2 -8.2999999999999996e-01 4.3915302477020326e+00 2.4680146305185779e+00 3.1670530967934805e+01 6 7 0
2335 444 2 -8.2999999999999996e-01 2.8271894838780360e+00 6.4567291467995265e+00 3.0896790291826523e+01 -6 -1 0
5942 444 1 4.1499999999999998e-01 8.0826219852930006e+00 5.6693408390876030e+00 2.7804153300483531e+01 -6 4 0
2723 444 1 4.1499999999999998e-01 8.9569364715884934e+00 4.9151150019398688e+00 2.4516012845281626e+01 0 -1 0
2724 444 1 4.1499999999999998e-01 8.9770269825380282e+00 5.9827402725876873e+00 2.5589170660956064e+01 0 -1 0
2722 444 2 -8.2999999999999996e-01 9.0011234928619182e+00 5.8632524653183129e+00 2.4639763659388791e+01 0 -1 0
5943 444 1 4.1499999999999998e-01 7.9328261886095470e+00 7.0866623553722805e+00 2.7293608576486882e+01 -6 4 0
6054 444 1 4.1499999999999998e-01 3.8222032808023259e+00 5.9173600881259567e+00 3.2392697735084290e+01 -1 1 0