LAMMPS data file via write_data, version 11 Aug 2017, timestep = 500000

7224 atoms
7 atom types
4080 bonds
5 bond types
2130 angles
3 angle types
150 dihedrals
2 dihedral types

0.0000000000000000e+00 4.5679949999999998e+01 xlo xhi
0.0000000000000000e+00 4.6885919999999999e+01 ylo yhi
0.0000000000000000e+00 6.5000000000000000e+01 zlo zhi

Masses

1 1.0079
2 15.9994
3 22.9898
4 15.9994
5 12.011
6 1.0079
7 107.868

Angle Coeffs # harmonic

1 50 109.471
2 50 104.51
3 55 104.52

Dihedral Coeffs # charmm

1 0.111111 3 0 0
2 0.333333 3 0 0

Atoms # full

6073 444 7 0.0000000000000000e+00 1.6907200000000000e+00 0.0000000000000000e+00 0.0000000000000000e+00 0 0 0
6074 444 7 0.0000000000000000e+00 4.2285000000000004e+00 1.4651900000000000e+00 0.0000000000000000e+00 0 0 0
6075 444 7 -6.9400000000000000e-03 1.6907700000000001e+00 0.0000000000000000e+00 7.1781499999999996e+00 0 0 0
6076 444 7 -6.9400000000000000e-03 4.2285500000000003e+00 1.4651900000000000e+00 7.1781499999999996e+00 0 0 0
6077 444 7 0.0000000000000000e+00 2.5366499999999998e+00 1.4651900000000000e+00 2.3926400000000001e+00 0 0 0
6078 444 7 0.0000000000000000e+00 5.0744199999999999e+00 0.0000000000000000e+00 2.3926400000000001e+00 0 0 0
6079 444 7 0.0000000000000000e+00 8.4509000000000001e-01 1.4651900000000000e+00 4.7824200000000001e+00 0 0 0
6080 444 7 0.0000000000000000e+00 3.3828600000000000e+00 0.0000000000000000e+00 4.7824499999999999e+00 0 0 0
6081 444 7 0.0000000000000000e+00 1.6907200000000000e+00 2.9303699999999999e+00 0.0000000000000000e+00 0 0 0
6082 444 7 0.0000000000000000e+00 4.2285000000000004e+00 4.3955599999999997e+00 0.0000000000000000e+00 0 0 0
6083 444 7 -6.9400000000000000e-03 1.6907700000000001e+00 2.9303699999999999e+00 7.1781899999999998e+00 0 0 0
6084 444 7 -6.9400000000000000e-03 4.2285500000000003e+00 4.3955599999999997e+00 7.1781600000000001e+00 0 0 0
6085 444 7 0.0000000000000000e+00 2.5366499999999998e+00 4.3955599999999997e+00 2.3926400000000001e+00 0 0 0
6086 444 7 0.0000000000000000e+00 5.0744199999999999e+00 2.9303699999999999e+00 2.3926400000000001e+00 0 0 0
6087 444 7 0.0000000000000000e+00 8.4509000000000001e-01 4.3955599999999997e+00 4.7824499999999999e+00 0 0 0
6088 444 7 0.0000000000000000e+00 3.3828700000000000e+00 2.9303699999999999e+00 4.7824400000000002e+00 0 0 0
2289 444 1 4.1499999999999998e-01 1.6037029175198330e+00 2.6623947332804176e+00 1.2611270958004349e+01 1 -3 0
2287 444 2 -8.2999999999999996e-01 9.5261876992144767e-01 3.3004405187233856e+00 1.2903194405378418e+01 1 -3 0
1125 444 1 4.1499999999999998e-01 4.0507187867589698e+00 5.5148188712384494e-01 1.3116715389618108e+01 -6 2 0
146 444 1 4.1499999999999998e-01 3.5066091648595012e+00 2.7523309726374587e+00 1.0393020863303704e+01 0 2 0
1123 444 2 -8.2999999999999996e-01 3.2783023357635881e+00 8.1864695086172268e-01 1.2618491124624718e+01 -6 2 0
3235 444 2 -8.2999999999999996e-01 1.6103548058635184e+00 3.5889541661653586e+00 1.5437632894769770e+01 -4 -2 0
4478 444 1 4.1499999999999998e-01 1.8472088613419777e+00 6.3842093339598394e-01 1.5615350407594841e+01 -4 0 0
1124 444 1 4.1499999999999998e-01 3.5541778994898401e+00 7.6926158063063976e-01 1.1703239515204942e+01 -6 2 0
147 444 1 4.1499999999999998e-01 4.7493444482025762e+00 2.2563357810278299e+00 9.6848592790802606e+00 0 2 0
2464 444 2 -8.2999999999999996e-01 1.9290866503074038e+00 2.0874242929919853e+00 1.0229070329013325e+01 2 6 0
2465 444 1 4.1499999999999998e-01 1.2472751783846847e+00 1.4174426730286034e+00 1.0278972858638484e+01 2 6 0
3236 444 1 4.1499999999999998e-01 1.1228418382058432e+00 3.4904637346025336e+00 1.4619792185110310e+01 -4 -2 0
145 444 2 -8.2999999999999996e-01 4.4210896651416220e+00 2.9774675796794079e+00 1.0221934225814048e+01 0 2 0
557 444 1 4.1499999999999998e-01 5.4431772480415264e+00 4.4803674955872808e+00 1.0500582484511026e+01 0 -1 0
656 444 1 4.1499999999999998e-01 1.7914438433962117e+00 2.0526916753666899e-01 1.3635476247610363e+01 3 -3 0
3237 444 1 4.1499999999999998e-01 2.0031437593650936e+00 2.7290928189399550e+00 1.5587923511765347e+01 -4 -2 0
705 444 1 4.1499999999999998e-01 5.1595835181100569e-01 5.1357507876888482e+00 1.2972782639755149e+01 0 1 0
4125 444 1 4.1499999999999998e-01 2.6745077501211876e+00 5.4261731457008464e+00 9.8207581501379781e+00 0 0 0
2466 444 1 4.1499999999999998e-01 1.4498817281931116e+00 2.9115349936681656e+00 1.0142832877088724e+01 2 6 0
5030 444 1 4.1499999999999998e-01 2.0375669350678018e+00 5.6194471646371040e+00 1.5320834450408521e+01 0 -2 0
4124 444 1 4.1499999999999998e-01 1.3977398854921781e+00 5.5223676811241145e+00 1.0628536309877678e+01 0 0 0
2288 444 1 4.1499999999999998e-01 1.2284932100240760e-01 2.8237461180075449e+00 1.2881333836292923e+01 1 -3 0
1646 444 1 4.1499999999999998e-01 3.1271096188001821e+00 1.4808214654307886e-01 9.8668738852769859e+00 6 3 0
1500 444 1 4.1499999999999998e-01 1.2888205715276517e+00 4.6666008958888279e+00 1.8269129952856101e+01 -1 -5 0
1498 444 2 -8.2999999999999996e-01 6.3869213226926336e-01 4.9412321299888244e+00 1.7622490549967999e+01 -1 -5 0
4603 444 2 -8.2999999999999996e-01 8.8769867235029387e-01 5.8041523292762216e+00 2.2264492067644170e+01 0 1 0
4477 444 2 -8.2999999999999996e-01 2.1749011105342486e+00 8.5990953216395583e-01 1.6487011444869275e+01 -4 0 0
2942 444 1 4.1499999999999998e-01 5.0588491189850089e+00 2.0945983489382574e+00 2.1650022535785570e+01 -1 -3 0
4479 444 1 4.1499999999999998e-01 3.1099768949408060e+00 1.0191689507335677e+00 1.6358549028465710e+01 -4 0 0
4917 444 1 4.1499999999999998e-01 4.7829869075094020e+00 1.6083935251380268e+00 1.7609514772126236e+01 -1 2 0
3836 444 1 4.1499999999999998e-01 4.1363503516695825e+00 3.5369036290274973e+00 1.9215778750275522e+01 -3 2 0
3837 444 1 4.1499999999999998e-01 5.6329092564334786e+00 3.3163406195210490e+00 1.9275433030520535e+01 -3 2 0
1817 444 1 4.1499999999999998e-01 2.5317859335538491e+00 2.6032667074654157e+00 1.8782140482097766e+01 0 -4 0
1800 444 1 4.1499999999999998e-01 7.4077234919313728e-01 1.0499422115273001e+00 1.7677857348615106e+01 -1 9 0
1816 444 2 -8.2999999999999996e-01 2.1781371002229086e+00 3.4290966716897811e+00 1.9112548175964815e+01 0 -4 0
3059 444 1 4.1499999999999998e-01 3.1296222326464367e+00 4.9544280882970293e+00 2.1216442789076385e+01 -1 3 0
1554 444 1 4.1499999999999998e-01 8.5667766143714352e-01 8.1271056972834066e-01 2.3142871472153285e+01 2 -1 0
3058 444 2 -8.2999999999999996e-01 3.3540314140399459e+00 4.0701750524729023e+00 2.1506217994575707e+01 -1 3 0
3060 444 1 4.1499999999999998e-01 3.6224947607915277e+00 4.1775493105719619e+00 2.2418703721190944e+01 -1 3 0
4915 444 2 -8.2999999999999996e-01 4.7980623506281947e+00 9.9273944288944926e-01 1.6876729251332005e+01 -1 2 0
3835 444 2 -8.2999999999999996e-01 4.8161336919498190e+00 2.8968055147521770e+00 1.9005062331036502e+01 -3 2 0
4916 444 1 4.1499999999999998e-01 5.4136016489416745e+00 1.3774057751534050e+00 1.6252730048127617e+01 -1 2 0
1552 444 2 -8.2999999999999996e-01 4.6306346670938309e-01 1.5088400129950799e+00 2.3668897883379813e+01 2 -1 0
1499 444 1 4.1499999999999998e-01 1.0063523662984586e+00 4.6686076060566588e+00 1.6781816205023368e+01 -1 -5 0
1818 444 1 4.1499999999999998e-01 2.0703468918476871e+00 3.2849634651485946e+00 2.0052675303520324e+01 0 -4 0
1798 444 2 -8.2999999999999996e-01 4.4446911884859580e-02 7.7514007140065710e-01 1.8274386713823613e+01 -1 9 0
5900 444 1 4.1499999999999998e-01 5.0888181875106788e+00 4.9734038706839439e+00 2.3954617052262201e+01 5 1 0
5899 444 2 -8.2999999999999996e-01 4.6613106929281587e+00 5.8164154707715801e+00 2.3803617716632072e+01 5 1 0
1040 444 1 4.1499999999999998e-01 2.5919645185497314e-02 4.6508474106708819e+00 2.3226430222066703e+01 3 -2 0
2166 444 1 4.1499999999999998e-01 5.2546009948993335e+00 1.1178216745005709e+00 3.0576691824762825e+01 -1 4 0
1561 444 2 -8.2999999999999996e-01 2.2901879500391487e-01 1.9117877387174829e+00 2.8456667767643779e+01 -4 4 0
1562 444 1 4.1499999999999998e-01 6.3416576080193754e-01 1.4811243934953358e+00 2.7703928361698438e+01 -4 4 0
2164 444 2 -8.2999999999999996e-01 4.6199836108036925e+00 5.1023342415409134e-01 3.0956598959592736e+01 -1 4 0
1906 444 2 -8.2999999999999996e-01 4.2534983874537335e+00 3.6824215717441335e+00 2.8510448678390766e+01 3 3 0
3152 444 1 4.1499999999999998e-01 1.2834511187425452e+00 5.4444761079837658e+00 2.9646970779472525e+01 -7 5 0
1656 444 1 4.1499999999999998e-01 5.6221775921656931e+00 7.0275272230017216e-01 2.4581020213627031e+01 1 2 0
1908 444 1 4.1499999999999998e-01 5.0252300785993924e+00 3.1400780701613140e+00 2.8673317011007882e+01 3 3 0
3884 444 1 4.1499999999999998e-01 3.1858951571300600e+00 3.4519393355645622e+00 3.1691878847388878e+01 -3 -4 0
5901 444 1 4.1499999999999998e-01 3.9166678668079919e+00 5.8190162345779344e+00 2.4405059689422512e+01 5 1 0
1654 444 2 -8.2999999999999996e-01 5.4876721967320332e+00 9.7052340422928551e-01 2.5490107350651982e+01 1 2 0
693 444 1 4.1499999999999998e-01 2.7513900531173370e+00 1.3050707519414722e+00 2.6269932259188163e+01 6 -1 0
1094 444 1 4.1499999999999998e-01 2.4241744200654334e+00 3.5455324692390295e+00 2.5466265414830346e+01 2 -4 0
4832 444 1 4.1499999999999998e-01 1.1661281436815418e+00 3.4732775605117490e+00 2.8146029270594305e+01 1 2 0
4833 444 1 4.1499999999999998e-01 2.6327687053845708e+00 3.8080253665451713e+00 2.8315747435077522e+01 1 2 0
909 444 1 4.1499999999999998e-01 8.3574075806004766e-01 3.3485353803807296e+00 3.1128913174575676e+01 4 1 0
3351 444 1 4.1499999999999998e-01 2.3328209794403838e+00 6.3713979037118640e-01 2.9270143042551013e+01 -1 1 0
692 444 1 4.1499999999999998e-01 1.6980944686094253e+00 1.5269420077082507e+00 2.5205396154346015e+01 6 -1 0
691 444 2 -8.2999999999999996e-01 1.9817261311082250e+00 1.8362376341120781e+00 2.6065699357343149e+01 6 -1 0
3885 444 1 4.1499999999999998e-01 2.8006789165062274e+00 3.8001741783168668e+00 3.0269825244175262e+01 -3 -4 0
1655 444 1 4.1499999999999998e-01 4.8086532368923889e+00 3.7995068974155066e-01 2.5816282252598885e+01 1 2 0
1514 444 1 4.1499999999999998e-01 5.6365807821698306e+00 4.3210106698907831e+00 3.2363468605060206e+01 3 0 0
4831 444 2 -8.2999999999999996e-01 1.7675013867628822e+00 4.2112925615900609e+00 2.8245607514411482e+01 1 2 0
1907 444 1 4.1499999999999998e-01 4.5849885969506543e+00 4.5803457824093812e+00 2.8519331521950136e+01 3 3 0
1093 444 2 -8.2999999999999996e-01 2.1359629969258784e+00 4.3482453826432632e+00 2.5031732592981793e+01 2 -4 0
3933 444 1 4.1499999999999998e-01 9.3080706530342450e-01 1.9810886928299589e+00 3.2388372683831513e+01 -3 -1 0
3883 444 2 -8.2999999999999996e-01 2.4281044764441426e+00 3.6308903960842547e+00 3.1135136254084543e+01 -3 -4 0
1095 444 1 4.1499999999999998e-01 1.2894644492088143e+00 4.1219172386383676e+00 2.4646442797642393e+01 2 -4 0
5325 444 1 4.1499999999999998e-01 2.1528958380412426e+00 5.5640522691179664e+00 2.7459167901835958e+01 -2 1 0
908 444 1 4.1499999999999998e-01 1.0829314685816742e-01 2.5107179439662941e+00 3.0098973202089926e+01 4 1 0
907 444 2 -8.2999999999999996e-01 2.6820750674717640e-02 2.8566477415081915e+00 3.0987751245261403e+01 4 1 0
2165 444 1 4.1499999999999998e-01 4.0917502484845150e+00 2.1913698068405738e-01 3.0213319617370484e+01 -1 4 0
4482 444 1 4.1499999999999998e-01 4.4403727768638444e+00 4.4953035981945071e+00 3.3514084242017042e+01 -1 3 0
4985 444 1 4.1499999999999998e-01 4.2678259671455765e-01 9.7097803825316265e-01 3.4449521432075954e+01 5 3 0
3931 444 2 -8.2999999999999996e-01 1.4445128173863866e+00 1.5577538858585647e+00 3.3076214514833147e+01 -3 -1 0
4480 444 2 -8.2999999999999996e-01 4.5882834338044454e+00 5.0660186657992767e+00 3.4268165470575710e+01 -1 3 0
2774 444 1 4.1499999999999998e-01 3.4411026957667703e+00 2.2271593171184185e+00 3.3522985354887538e+01 -8 2 0
2775 444 1 4.1499999999999998e-01 4.8970808523230902e+00 2.4969705544433802e+00 3.3207985080853128e+01 -8 2 0
4481 444 1 4.1499999999999998e-01 4.5933616906306787e+00 4.4737091009801713e+00 3.5020079988218384e+01 -1 3 0
2773 444 2 -8.2999999999999996e-01 4.0304525429201972e+00 2.9029086669084512e+00 3.3187930538103153e+01 -8 2 0
3932 444 1 4.1499999999999998e-01 1.5626755870807945e+00 6.5899940576925298e-01 3.2768789851779324e+01 -3 -1 0
6089 444 7 0.0000000000000000e+00 1.6907200000000000e+00 5.8607399999999998e+00 0.0000000000000000e+00 0 0 0
6090 444 7 0.0000000000000000e+00 4.2285000000000004e+00 7.3259299999999996e+00 0.0000000000000000e+00 0 0 0
6091 444 7 -6.9400000000000000e-03 1.6907700000000001e+00 5.8607399999999998e+00 7.1781499999999996e+00 0 0 0
6092 444 7 -6.9400000000000000e-03 4.2285500000000003e+00 7.3259299999999996e+00 7.1781499999999996e+00 0 0 0
6093 444 7 0.0000000000000000e+00 2.5366499999999998e+00 7.3259299999999996e+00 2.3926400000000001e+00 0 0 0
6094 444 7 0.0000000000000000e+00 5.0744199999999999e+00 5.8607399999999998e+00 2.3926400000000001e+00 0 0 0
6095 444 7 0.0000000000000000e+00 8.4509000000000001e-01 7.3259299999999996e+00 4.7824200000000001e+00 0 0 0
6096 444 7 0.0000000000000000e+00 3.3828600000000000e+00 5.8607399999999998e+00 4.7824499999999999e+00 0 0 0
6097 444 7 0.0000000000000000e+00 1.6907200000000000e+00 8.7911099999999998e+00 0.0000000000000000e+00 0 0 0
6098 444 7 0.0000000000000000e+00 4.2285000000000004e+00 1.0256300000000000e+01 0.0000000000000000e+00 0 0 0
6099 444 7 -6.9400000000000000e-03 1.6907700000000001e+00 8.7911099999999998e+00 7.1781899999999998e+00 0 0 0
6100 444 7 -6.9400000000000000e-03 4.2285500000000003e+00 1.0256300000000000e+01 7.1781600000000001e+00 0 0 0
6101 444 7 0.0000000000000000e+00 2.5366499999999998e+00 1.0256300000000000e+01 2.3926400000000001e+00 0 0 0
6102 444 7 0.0000000000000000e+00 5.0744199999999999e+00 8.7911099999999998e+00 2.3926400000000001e+00 0 0 0
6103 444 7 0.0000000000000000e+00 8.4509000000000001e-01 1.0256300000000000e+01 4.7824499999999999e+00 0 0 0
6104 444 7 0.0000000000000000e+00 3.3828700000000000e+00 8.7911099999999998e+00 4.7824400000000002e+00 0 0 0
2657 444 1 4.1499999999999998e-01 3.6004640470523954e+00 8.0806957385095668e+00 1.2012045079890655e+01 1 1 0
2656 444 2 -8.2999999999999996e-01 3.3705936037511579e+00 8.1582895714515207e+00 1.1086102010623216e+01 1 1 0
11 444 5 1.4000000000000001e-01 2.8848340202670522e+00 1.1033951843265394e+01 1.4519727975922375e+01 3 2 0
2992 444 2 -8.2999999999999996e-01 3.9440487688084840e+00 7.8546699783752638e+00 1.3754563671874630e+01 5 2 0
2994 444 1 4.1499999999999998e-01 3.1273539243183892e+00 7.6096952958898765e+00 1.4189568804492596e+01 5 2 0
2658 444 1 4.1499999999999998e-01 2.9111679113517992e+00 7.3432912100230912e+00 1.0883771943423323e+01 1 1 0
5029 444 2 -8.2999999999999996e-01 2.2359579767826356e+00 6.5551698281916639e+00 1.5356832822793152e+01 0 -2 0
2993 444 1 4.1499999999999998e-01 4.4162992887400794e+00 7.0289137067504290e+00 1.3648082359739041e+01 5 2 0
26 444 6 2.9999999999999999e-02 2.6888077189880315e+00 1.0032246504573255e+01 1.4790309077437360e+01 3 2 0
1863 444 1 4.1499999999999998e-01 1.1667028436066913e+00 8.5077968009819447e+00 1.0273511936392602e+01 -2 -1 0
265 444 2 -8.2999999999999996e-01 1.5993130155074375e-01 8.0142735361340360e+00 1.4763045194811143e+01 1 2 0
1861 444 2 -8.2999999999999996e-01 2.8307978834397834e-01 8.8549253722207109e+00 1.0395756654175795e+01 -2 -1 0
27 444 6 2.9999999999999999e-02 2.7911370734626093e+00 1.1209339837589212e+01 1.3442980706829761e+01 3 2 0
5316 444 1 4.1499999999999998e-01 4.0375033450918583e+00 9.8698869353893883e+00 1.0945919174846933e+01 -1 0 0
5314 444 2 -8.2999999999999996e-01 4.5198175299976544e+00 1.0645709648894398e+01 1.0660078455732267e+01 -1 0 0
3 444 4 -4.0000000000000002e-01 4.2364107012918080e+00 1.1388964031029451e+01 1.5029853738647860e+01 3 2 0
267 444 1 4.1499999999999998e-01 9.7353450421856957e-01 7.6365788275726327e+00 1.5097153235965088e+01 1 2 0
2785 444 2 -8.2999999999999996e-01 8.1246266432027459e-01 1.1421657761420002e+01 1.1117989609751863e+01 3 5 0
703 444 2 -8.2999999999999996e-01 2.3019153709567861e-01 6.0118181323715048e+00 1.2713793386902315e+01 0 1 0
5031 444 1 4.1499999999999998e-01 2.6313386327639674e+00 6.6836671549760132e+00 1.6219036029564752e+01 0 -2 0
5315 444 1 4.1499999999999998e-01 5.1412811781092032e+00 1.0316257278438941e+01 1.0010866461091830e+01 -1 0 0
1862 444 1 4.1499999999999998e-01 4.1759219305274592e-01 9.7375470301385150e+00 1.0740890159553782e+01 -2 -1 0
22 444 6 2.9999999999999999e-02 5.2208971412123217e+00 1.0179550252002747e+01 1.3624675790834814e+01 3 2 0
704 444 1 4.1499999999999998e-01 2.4920306315082974e-01 6.5199725451646362e+00 1.3524749325870520e+01 0 1 0
9 444 5 1.4000000000000001e-01 5.2246136887502974e+00 1.0462790779330913e+01 1.4649948314181298e+01 3 2 0
23 444 6 2.9999999999999999e-02 5.3090469077226512e+00 9.5555798354134343e+00 1.5340544718756210e+01 3 2 0
4123 444 2 -8.2999999999999996e-01 2.1722897818965250e+00 6.0240817072105539e+00 1.0374395553206819e+01 0 0 0
4577 444 1 4.1499999999999998e-01 5.2497377268432723e+00 8.0344068477448101e+00 1.0646874661904128e+01 6 -3 0
3736 444 2 -8.2999999999999996e-01 4.9493866421710377e+00 1.0442162872932640e+01 1.8285560003710223e+01 -2 -2 0
1320 444 1 4.1499999999999998e-01 2.9676263892109360e+00 7.4155754016694022e+00 2.1317163528457979e+01 -4 -1 0
473 444 1 4.1499999999999998e-01 1.6691468224895565e-02 9.5748170776356343e+00 1.8425025364882039e+01 3 0 0
1795 444 2 -8.2999999999999996e-01 2.9697557687377039e+00 9.1702012403880566e+00 1.9290950635525295e+01 1 1 0
896 444 1 4.1499999999999998e-01 5.5220926782072999e+00 7.1178498103133272e+00 2.2756343561981449e+01 1 -1 0
5378 444 1 4.1499999999999998e-01 2.1105242299428846e+00 9.1878174491780946e+00 2.2550288078179307e+01 1 1 0
474 444 1 4.1499999999999998e-01 1.1007870714047512e+00 8.6418779937734236e+00 1.8921267749799693e+01 3 0 0
5379 444 1 4.1499999999999998e-01 3.5596133287002272e+00 9.2420457280295416e+00 2.2985138995946507e+01 1 1 0
5377 444 2 -8.2999999999999996e-01 2.9842854177646370e+00 8.8775786005062542e+00 2.2312536320434162e+01 1 1 0
4605 444 1 4.1499999999999998e-01 2.5797855617371779e-01 6.4817485522179421e+00 2.2018425021782647e+01 0 1 0
1719 444 1 4.1499999999999998e-01 1.0922952166645190e+00 1.1330882869734774e+01 2.4324743443623824e+01 -2 -3 0
904 444 2 -8.2999999999999996e-01 3.5409445164672628e+00 6.8719679918488143e+00 1.7879372655113965e+01 0 -2 0
906 444 1 4.1499999999999998e-01 3.4650921483156303e+00 7.8057236741818583e+00 1.8075788238227137e+01 0 -2 0
472 444 2 -8.2999999999999996e-01 1.4986915955610822e-01 8.7326441732509466e+00 1.8860042935615660e+01 3 0 0
2431 444 2 -8.2999999999999996e-01 3.8657721081965386e+00 1.1605115892444109e+01 2.1632306250501216e+01 2 0 0
905 444 1 4.1499999999999998e-01 4.4795207912273520e+00 6.7274650895798489e+00 1.7759261911287755e+01 0 -2 0
1796 444 1 4.1499999999999998e-01 3.7071443245070141e+00 9.7380153674770753e+00 1.9067171510908601e+01 1 1 0
1319 444 1 4.1499999999999998e-01 3.3666714437782357e+00 6.9983871758759477e+00 1.9917658993505619e+01 -4 -1 0
5278 444 2 -8.2999999999999996e-01 4.5712144758206659e+00 1.0359059320328353e+01 2.3940728170005908e+01 0 -6 0
5280 444 1 4.1499999999999998e-01 4.4227534098041144e+00 1.0941083366440388e+01 2.3195450691869063e+01 0 -6 0
1797 444 1 4.1499999999999998e-01 2.9300319649630899e+00 9.1940234519275386e+00 2.0247029257523273e+01 1 1 0
3737 444 1 4.1499999999999998e-01 4.9155288323283779e+00 1.0777134458598260e+01 1.7389524602611807e+01 -2 -2 0
1318 444 2 -8.2999999999999996e-01 2.9151535191807243e+00 6.6847452703418524e+00 2.0701235755962799e+01 -4 -1 0
1504 444 2 -8.2999999999999996e-01 8.7303325542638185e-02 9.2076219349108257e+00 2.2502322615219171e+01 -2 -2 0
1782 444 1 4.1499999999999998e-01 5.5483988422037820e+00 1.1053094448714671e+01 2.1553524355551186e+01 1 -1 0
4604 444 1 4.1499999999999998e-01 1.6485428138063962e+00 5.9700937455500123e+00 2.1707884270868313e+01 0 1 0
2432 444 1 4.1499999999999998e-01 3.3313363140995600e+00 1.1474860030841118e+01 2.0848952192237387e+01 2 0 0
897 444 1 4.1499999999999998e-01 5.5899651962646892e+00 8.6297331701500770e+00 2.2795034103318166e+01 1 -1 0
4364 444 1 4.1499999999999998e-01 5.0428895302800472e+00 1.0778909394220687e+01 3.0306866779619799e+01 -6 1 0
653 444 1 4.1499999999999998e-01 1.0463768926992924e-01 8.6564825467889541e+00 2.9161175967846990e+01 0 0 0
4365 444 1 4.1499999999999998e-01 5.7083707033045856e+00 1.1382665516445854e+01 3.1525270798827933e+01 -6 1 0
5279 444 1 4.1499999999999998e-01 3.9792148455211827e+00 1.0682767659888668e+01 2.4619684108332649e+01 0 -6 0
357 444 1 4.1499999999999998e-01 2.6274303836929476e+00 1.0543618764940392e+01 3.1617636621629192e+01 0 3 0
2633 444 1 4.1499999999999998e-01 3.6020182401363630e+00 7.5208183690910992e+00 2.9435117984134642e+01 -1 -3 0
606 444 1 4.1499999999999998e-01 3.3345621831410599e-01 1.0989900926138555e+01 3.0092245600638531e+01 1 -3 0
2634 444 1 4.1499999999999998e-01 4.4795276128612427e+00 6.6029237541282999e+00 3.0259339913852429e+01 -1 -3 0
2397 444 1 4.1499999999999998e-01 3.8606072170141936e+00 1.0410315331017161e+01 2.8238947793185364e+01 -1 1 0
581 444 1 4.1499999999999998e-01 2.1920486887186899e+00 8.7303014679983004e+00 2.8828783237146958e+01 -2 3 0
2395 444 2 -8.2999999999999996e-01 4.3295939433240367e+00 1.1244465686090200e+01 2.8260797962894870e+01 -1 1 0
582 444 1 4.1499999999999998e-01 2.8222045677169474e+00 8.0174212915404386e+00 2.7651242999518349e+01 -2 3 0
1775 444 1 4.1499999999999998e-01 5.6264362552148963e+00 6.7764965042088301e+00 2.7450089265869320e+01 6 6 0
580 444 2 -8.2999999999999996e-01 2.8326177146920788e+00 8.8477877709502710e+00 2.8127284601807425e+01 -2 3 0
5323 444 2 -8.2999999999999996e-01 2.2330346264024445e+00 6.3536433210364009e+00 2.6924045801789866e+01 -2 1 0
3195 444 1 4.1499999999999998e-01 3.1464732087347289e+00 8.2654714752090843e+00 3.1879357733545849e+01 -1 2 0
2632 444 2 -8.2999999999999996e-01 3.7120248193163761e+00 7.1717323867841429e+00 3.0319578140313862e+01 -1 -3 0
5324 444 1 4.1499999999999998e-01 1.9422499641752329e+00 6.0837224286549336e+00 2.6052943768393039e+01 -2 1 0
355 444 2 -8.2999999999999996e-01 2.6844344790147261e+00 1.1470803886201631e+01 3.1386746193349762e+01 0 3 0
1717 444 2 -8.2999999999999996e-01 1.8611074066673947e+00 1.1155620276270746e+01 2.4867369233262767e+01 -2 -3 0
652 444 2 -8.2999999999999996e-01 5.5221242263896131e-01 9.2435633321937765e+00 2.9770474831192573e+01 0 0 0
4563 444 1 4.1499999999999998e-01 5.0120721857080097e-01 8.8076116636621560e+00 2.6402209039962315e+01 -2 0 0
3153 444 1 4.1499999999999998e-01 1.8783912942297973e+00 6.3666191897773148e+00 3.0689848172295033e+01 -7 5 0
1774 444 2 -8.2999999999999996e-01 5.5811500493198496e+00 6.4301884714219790e+00 2.8341297316030971e+01 6 6 0
4561 444 2 -8.2999999999999996e-01 1.1250308290389732e-01 8.1037719572683393e+00 2.6921584250914510e+01 -2 0 0
4562 444 1 4.1499999999999998e-01 7.8020672743911379e-01 7.4180291902401869e+00 2.6934294287558249e+01 -2 0 0
654 444 1 4.1499999999999998e-01 6.5188981522461320e-01 8.7281570643664832e+00 3.0570882716307086e+01 0 0 0
3151 444 2 -8.2999999999999996e-01 1.1303105196348200e+00 6.2736820424455679e+00 3.0099958413272567e+01 -7 5 0
356 444 1 4.1499999999999998e-01 1.8829959052005139e+00 1.1644922687527961e+01 3.0893176546523680e+01 0 3 0
2081 444 1 4.1499999999999998e-01 5.5166346865805105e+00 8.1539208126150129e+00 2.5544641790600480e+01 -1 -1 0
3359 444 1 4.1499999999999998e-01 5.3232637209306128e+00 8.8008773279777426e+00 3.5700488581929811e+01 -1 0 0
3360 444 1 4.1499999999999998e-01 4.1142935035277057e+00 8.6757145823155710e+00 3.6603051710972295e+01 -1 0 0
4691 444 1 4.1499999999999998e-01 4.8332762804402893e+00 1.0552223976395050e+01 3.4852614136528530e+01 4 -7 0
3358 444 2 -8.2999999999999996e-01 4.8097063820237604e+00 9.2824291939599171e+00 3.6349024215368132e+01 -1 0 0
2702 444 1 4.1499999999999998e-01 6.4318849223605634e-01 9.7341480312237660e+00 3.4556704540579034e+01 -1 -3 0
4273 444 2 -8.2999999999999996e-01 5.3017340570072085e+00 7.5222910889609773e+00 3.4627940170689477e+01 5 -6 0
4274 444 1 4.1499999999999998e-01 5.0671027055926556e+00 6.5991212919594791e+00 3.4533401634112138e+01 5 -6 0
2701 444 2 -8.2999999999999996e-01 6.6393099164324565e-01 8.8589716350052843e+00 3.4169576468959676e+01 -1 -3 0
5720 444 1 4.1499999999999998e-01 1.7998927395578648e+00 1.1226081156055409e+01 3.4181212555532476e+01 -3 5 0
3194 444 1 4.1499999999999998e-01 3.4456303809136433e+00 8.4723782935925840e+00 3.3348912039910012e+01 -1 2 0
2703 444 1 4.1499999999999998e-01 1.4744970941922844e+00 8.8407703622733056e+00 3.3660770427356056e+01 -1 -3 0
3193 444 2 -8.2999999999999996e-01 2.8889612133487605e+00 8.7896115681232025e+00 3.2637775688624643e+01 -1 2 0
4690 444 2 -8.2999999999999996e-01 5.0516946061881809e+00 1.1482075401834624e+01 3.4790153806841225e+01 4 -7 0
5719 444 2 -8.2999999999999996e-01 1.1052879510419542e+00 1.1491285502310451e+01 3.4784058484774199e+01 -3 5 0
4275 444 1 4.1499999999999998e-01 5.6533767977489813e+00 7.7693405068408117e+00 3.3772635761458133e+01 5 -6 0
6105 444 7 0.0000000000000000e+00 1.6907200000000000e+00 1.1721480000000000e+01 0.0000000000000000e+00 0 0 0
6106 444 7 0.0000000000000000e+00 4.2285000000000004e+00 1.3186669999999999e+01 0.0000000000000000e+00 0 0 0
6107 444 7 -6.9400000000000000e-03 1.6907700000000001e+00 1.1721480000000000e+01 7.1781499999999996e+00 0 0 0
6108 444 7 -6.9400000000000000e-03 4.2285500000000003e+00 1.3186669999999999e+01 7.1781499999999996e+00 0 0 0
6109 444 7 0.0000000000000000e+00 2.5366499999999998e+00 1.3186669999999999e+01 2.3926400000000001e+00 0 0 0
6110 444 7 0.0000000000000000e+00 5.0744199999999999e+00 1.1721480000000000e+01 2.3926400000000001e+00 0 0 0
6111 444 7 0.0000000000000000e+00 8.4509000000000001e-01 1.3186669999999999e+01 4.7824200000000001e+00 0 0 0
6112 444 7 0.0000000000000000e+00 3.3828600000000000e+00 1.1721480000000000e+01 4.7824499999999999e+00 0 0 0
6113 444 7 0.0000000000000000e+00 1.6907200000000000e+00 1.4651850000000000e+01 0.0000000000000000e+00 0 0 0
6115 444 7 -6.9400000000000000e-03 1.6907700000000001e+00 1.4651850000000000e+01 7.1781899999999998e+00 0 0 0
6118 444 7 0.0000000000000000e+00 5.0744199999999999e+00 1.4651850000000000e+01 2.3926400000000001e+00 0 0 0
6120 444 7 0.0000000000000000e+00 3.3828700000000000e+00 1.4651850000000000e+01 4.7824400000000002e+00 0 0 0
6114 444 7 0.0000000000000000e+00 4.2285000000000004e+00 1.6117039999999999e+01 0.0000000000000000e+00 0 0 0
6116 444 7 -6.9400000000000000e-03 4.2285500000000003e+00 1.6117039999999999e+01 7.1781600000000001e+00 0 0 0
6117 444 7 0.0000000000000000e+00 2.5366499999999998e+00 1.6117039999999999e+01 2.3926400000000001e+00 0 0 0
6119 444 7 0.0000000000000000e+00 8.4509000000000001e-01 1.6117039999999999e+01 4.7824499999999999e+00 0 0 0
4 444 4 -4.0000000000000002e-01 3.1095137093178589e+00 1.5056168197074598e+01 1.5433964074617879e+01 3 2 0
3979 444 2 -8.2999999999999996e-01 4.1126861617911387e-01 1.4096271099833482e+01 9.9283602507999884e+00 0 6 0
3475 444 2 -8.2999999999999996e-01 2.8994438262172912e+00 1.6931244166427074e+01 1.0773173435633691e+01 1 -3 0
14 444 5 1.4000000000000001e-01 2.4841387989341124e+00 1.5277021947102115e+01 1.4178036712452448e+01 3 2 0
12 444 5 1.4000000000000001e-01 3.5958864897272091e+00 1.6268866084248810e+01 1.5951419443826030e+01 3 2 0
29 444 6 2.9999999999999999e-02 4.0096651238724528e+00 1.6996745003045465e+01 1.5281903238913902e+01 3 2 0
3477 444 1 4.1499999999999998e-01 3.6513965691056867e+00 1.7175541991435935e+01 1.1312726637885806e+01 1 -3 0
32 444 6 2.9999999999999999e-02 3.1290483312129678e+00 1.5611823847667527e+01 1.3448274275479603e+01 3 2 0
33 444 6 2.9999999999999999e-02 1.5936399784035187e+00 1.5881876502021244e+01 1.4321725225085675e+01 3 2 0
15 444 5 1.4000000000000001e-01 2.0952473614807632e+00 1.3856415053524193e+01 1.3837738105966107e+01 3 2 0
5 444 4 -4.0000000000000002e-01 2.4696188968379662e+00 1.3291285972253903e+01 1.5133930631442100e+01 3 2 0
3980 444 1 4.1499999999999998e-01 1.2113148906432771e+00 1.3575277412009063e+01 9.8596335886227742e+00 0 6 0
34 444 6 2.9999999999999999e-02 1.0172798545145738e+00 1.3795171938190132e+01 1.3542996191309712e+01 3 2 0
35 444 6 2.9999999999999999e-02 2.7154329312964380e+00 1.3558588522847838e+01 1.2970082676698727e+01 3 2 0
2566 444 2 -8.2999999999999996e-01 4.8421692035678943e+00 1.4878257600231466e+01 1.0461998704515196e+01 6 3 0
1705 444 2 -8.2999999999999996e-01 5.3966799792424265e+00 1.2582474873550932e+01 1.2012909062016609e+01 -4 3 0
4496 444 1 4.1499999999999998e-01 3.4524093477002999e+00 1.3491924916668914e+01 9.8083973171435641e+00 -2 -6 0
36 444 3 1.0000000000000000e+00 4.7722520927487269e+00 1.3673808987229924e+01 1.4277442177045531e+01 3 2 0
1707 444 1 4.1499999999999998e-01 5.0023305961366926e+00 1.1792328833863525e+01 1.1643599605478425e+01 -4 3 0
4495 444 2 -8.2999999999999996e-01 2.9568457736079421e+00 1.2900545721382962e+01 1.0374895034747704e+01 -2 -6 0
2568 444 1 4.1499999999999998e-01 5.6876564271365968e+00 1.5274705886078603e+01 1.0251729791626330e+01 6 3 0
30 444 6 2.9999999999999999e-02 8.9484377037932206e-01 1.2034115908841434e+01 1.4874439616850379e+01 3 2 0
5657 444 1 4.1499999999999998e-01 1.0916133153255991e+00 1.6854072105506372e+01 1.0408493495341474e+01 2 2 0
5656 444 2 -8.2999999999999996e-01 1.6948755173134991e-01 1.6644381321131462e+01 1.0260352697571985e+01 2 2 0
5658 444 1 4.1499999999999998e-01 1.8440629488769833e-01 1.5795288993890825e+01 9.8187063531161556e+00 2 2 0
13 444 5 1.4000000000000001e-01 1.9877601633152922e+00 1.1985111040157518e+01 1.5191470522917783e+01 3 2 0
2567 444 1 4.1499999999999998e-01 5.0640895615290136e+00 1.4078044738547970e+01 1.0938069302349042e+01 6 3 0
4497 444 1 4.1499999999999998e-01 3.5322284235603356e+00 1.2145084925400802e+01 1.0495089650461024e+01 -2 -6 0
3476 444 1 4.1499999999999998e-01 3.1840826369104263e+00 1.6145468240467281e+01 1.0306515675094653e+01 1 -3 0