LAMMPS data file via write_data, version 11 Aug 2017, timestep = 5000000

7944 atoms
7 atom types
4880 bonds
5 bond types
3430 angles
3 angle types
1650 dihedrals
2 dihedral types

0.0000000000000000e+00 4.5679949999999998e+01 xlo xhi
0.0000000000000000e+00 4.6885919999999999e+01 ylo yhi
0.0000000000000000e+00 6.5000000000000000e+01 zlo zhi

Masses

1 1.0079
2 15.9994
3 22.9898
4 15.9994
5 12.011
6 1.0079
7 107.868

Angle Coeffs # harmonic

1 50 109.471
2 50 104.51
3 55 104.52

Dihedral Coeffs # charmm

1 0.111111 3 0 0
2 0.333333 3 0 0

Atoms # full

6793 444 7 0.0000000000000000e+00 1.6907200000000000e+00 0.0000000000000000e+00 0.0000000000000000e+00 0 0 0
6794 444 7 0.0000000000000000e+00 4.2285000000000004e+00 1.4651900000000000e+00 0.0000000000000000e+00 0 0 0
6795 444 7 -7.6390000000000000e-02 1.6907700000000001e+00 0.0000000000000000e+00 7.1781499999999996e+00 0 0 0
6796 444 7 -7.6390000000000000e-02 4.2285500000000003e+00 1.4651900000000000e+00 7.1781499999999996e+00 0 0 0
6797 444 7 0.0000000000000000e+00 2.5366499999999998e+00 1.4651900000000000e+00 2.3926400000000001e+00 0 0 0
6798 444 7 0.0000000000000000e+00 5.0744199999999999e+00 0.0000000000000000e+00 2.3926400000000001e+00 0 0 0
6799 444 7 0.0000000000000000e+00 8.4509000000000001e-01 1.4651900000000000e+00 4.7824200000000001e+00 0 0 0
6800 444 7 0.0000000000000000e+00 3.3828600000000000e+00 0.0000000000000000e+00 4.7824499999999999e+00 0 0 0
6801 444 7 0.0000000000000000e+00 1.6907200000000000e+00 2.9303699999999999e+00 0.0000000000000000e+00 0 0 0
6802 444 7 0.0000000000000000e+00 4.2285000000000004e+00 4.3955599999999997e+00 0.0000000000000000e+00 0 0 0
6803 444 7 -7.6390000000000000e-02 1.6907700000000001e+00 2.9303699999999999e+00 7.1781899999999998e+00 0 0 0
6804 444 7 -7.6390000000000000e-02 4.2285500000000003e+00 4.3955599999999997e+00 7.1781600000000001e+00 0 0 0
6805 444 7 0.0000000000000000e+00 2.5366499999999998e+00 4.3955599999999997e+00 2.3926400000000001e+00 0 0 0
6806 444 7 0.0000000000000000e+00 5.0744199999999999e+00 2.9303699999999999e+00 2.3926400000000001e+00 0 0 0
6807 444 7 0.0000000000000000e+00 8.4509000000000001e-01 4.3955599999999997e+00 4.7824499999999999e+00 0 0 0
6808 444 7 0.0000000000000000e+00 3.3828700000000000e+00 2.9303699999999999e+00 4.7824400000000002e+00 0 0 0
6809 444 7 0.0000000000000000e+00 1.6907200000000000e+00 5.8607399999999998e+00 0.0000000000000000e+00 0 0 0
6810 444 7 0.0000000000000000e+00 4.2285000000000004e+00 7.3259299999999996e+00 0.0000000000000000e+00 0 0 0
6811 444 7 -7.6390000000000000e-02 1.6907700000000001e+00 5.8607399999999998e+00 7.1781499999999996e+00 0 0 0
6812 444 7 -7.6390000000000000e-02 4.2285500000000003e+00 7.3259299999999996e+00 7.1781499999999996e+00 0 0 0
6813 444 7 0.0000000000000000e+00 2.5366499999999998e+00 7.3259299999999996e+00 2.3926400000000001e+00 0 0 0
6814 444 7 0.0000000000000000e+00 5.0744199999999999e+00 5.8607399999999998e+00 2.3926400000000001e+00 0 0 0
6815 444 7 0.0000000000000000e+00 8.4509000000000001e-01 7.3259299999999996e+00 4.7824200000000001e+00 0 0 0
6816 444 7 0.0000000000000000e+00 3.3828600000000000e+00 5.8607399999999998e+00 4.7824499999999999e+00 0 0 0
6817 444 7 0.0000000000000000e+00 1.6907200000000000e+00 8.7911099999999998e+00 0.0000000000000000e+00 0 0 0
6818 444 7 0.0000000000000000e+00 4.2285000000000004e+00 1.0256300000000000e+01 0.0000000000000000e+00 0 0 0
6819 444 7 -7.6390000000000000e-02 1.6907700000000001e+00 8.7911099999999998e+00 7.1781899999999998e+00 0 0 0
6820 444 7 -7.6390000000000000e-02 4.2285500000000003e+00 1.0256300000000000e+01 7.1781600000000001e+00 0 0 0
6821 444 7 0.0000000000000000e+00 2.5366499999999998e+00 1.0256300000000000e+01 2.3926400000000001e+00 0 0 0
6822 444 7 0.0000000000000000e+00 5.0744199999999999e+00 8.7911099999999998e+00 2.3926400000000001e+00 0 0 0
6823 444 7 0.0000000000000000e+00 8.4509000000000001e-01 1.0256300000000000e+01 4.7824499999999999e+00 0 0 0
6824 444 7 0.0000000000000000e+00 3.3828700000000000e+00 8.7911099999999998e+00 4.7824400000000002e+00 0 0 0
6921 444 7 0.0000000000000000e+00 6.7662699999999996e+00 0.0000000000000000e+00 0.0000000000000000e+00 0 0 0
6923 444 7 -7.6390000000000000e-02 6.7663200000000003e+00 0.0000000000000000e+00 7.1781499999999996e+00 0 0 0
6925 444 7 0.0000000000000000e+00 7.6121999999999996e+00 1.4651900000000000e+00 2.3926400000000001e+00 0 0 0
6927 444 7 0.0000000000000000e+00 5.9206399999999997e+00 1.4651900000000000e+00 4.7824200000000001e+00 0 0 0
6929 444 7 0.0000000000000000e+00 6.7662699999999996e+00 2.9303699999999999e+00 0.0000000000000000e+00 0 0 0
6931 444 7 -7.6390000000000000e-02 6.7663200000000003e+00 2.9303699999999999e+00 7.1781899999999998e+00 0 0 0
6933 444 7 0.0000000000000000e+00 7.6121999999999996e+00 4.3955599999999997e+00 2.3926400000000001e+00 0 0 0
6935 444 7 0.0000000000000000e+00 5.9206399999999997e+00 4.3955599999999997e+00 4.7824499999999999e+00 0 0 0
6937 444 7 0.0000000000000000e+00 6.7662699999999996e+00 5.8607399999999998e+00 0.0000000000000000e+00 0 0 0
6939 444 7 -7.6390000000000000e-02 6.7663200000000003e+00 5.8607399999999998e+00 7.1781499999999996e+00 0 0 0
6941 444 7 0.0000000000000000e+00 7.6121999999999996e+00 7.3259299999999996e+00 2.3926400000000001e+00 0 0 0
6943 444 7 0.0000000000000000e+00 5.9206399999999997e+00 7.3259299999999996e+00 4.7824200000000001e+00 0 0 0
6945 444 7 0.0000000000000000e+00 6.7662699999999996e+00 8.7911099999999998e+00 0.0000000000000000e+00 0 0 0
6947 444 7 -7.6390000000000000e-02 6.7663200000000003e+00 8.7911099999999998e+00 7.1781899999999998e+00 0 0 0
6949 444 7 0.0000000000000000e+00 7.6121999999999996e+00 1.0256300000000000e+01 2.3926400000000001e+00 0 0 0
6951 444 7 0.0000000000000000e+00 5.9206399999999997e+00 1.0256300000000000e+01 4.7824499999999999e+00 0 0 0
6922 444 7 0.0000000000000000e+00 9.3040500000000002e+00 1.4651900000000000e+00 0.0000000000000000e+00 0 0 0
6924 444 7 -7.6390000000000000e-02 9.3041000000000000e+00 1.4651900000000000e+00 7.1781499999999996e+00 0 0 0
6926 444 7 0.0000000000000000e+00 1.0149970000000000e+01 0.0000000000000000e+00 2.3926400000000001e+00 0 0 0
6928 444 7 0.0000000000000000e+00 8.4584100000000007e+00 0.0000000000000000e+00 4.7824499999999999e+00 0 0 0
6930 444 7 0.0000000000000000e+00 9.3040500000000002e+00 4.3955599999999997e+00 0.0000000000000000e+00 0 0 0
6932 444 7 -7.6390000000000000e-02 9.3041000000000000e+00 4.3955599999999997e+00 7.1781600000000001e+00 0 0 0
6934 444 7 0.0000000000000000e+00 1.0149970000000000e+01 2.9303699999999999e+00 2.3926400000000001e+00 0 0 0
6936 444 7 0.0000000000000000e+00 8.4584200000000003e+00 2.9303699999999999e+00 4.7824400000000002e+00 0 0 0
7055 444 7 0.0000000000000000e+00 1.0996190000000000e+01 1.4651900000000000e+00 4.7824200000000001e+00 0 0 0
7063 444 7 0.0000000000000000e+00 1.0996190000000000e+01 4.3955599999999997e+00 4.7824499999999999e+00 0 0 0
6938 444 7 0.0000000000000000e+00 9.3040500000000002e+00 7.3259299999999996e+00 0.0000000000000000e+00 0 0 0
6940 444 7 -7.6390000000000000e-02 9.3041000000000000e+00 7.3259299999999996e+00 7.1781499999999996e+00 0 0 0
6942 444 7 0.0000000000000000e+00 1.0149970000000000e+01 5.8607399999999998e+00 2.3926400000000001e+00 0 0 0
6944 444 7 0.0000000000000000e+00 8.4584100000000007e+00 5.8607399999999998e+00 4.7824499999999999e+00 0 0 0
7071 444 7 0.0000000000000000e+00 1.0996190000000000e+01 7.3259299999999996e+00 4.7824200000000001e+00 0 0 0
6946 444 7 0.0000000000000000e+00 9.3040500000000002e+00 1.0256300000000000e+01 0.0000000000000000e+00 0 0 0
6948 444 7 -7.6390000000000000e-02 9.3041000000000000e+00 1.0256300000000000e+01 7.1781600000000001e+00 0 0 0
6950 444 7 0.0000000000000000e+00 1.0149970000000000e+01 8.7911099999999998e+00 2.3926400000000001e+00 0 0 0
6952 444 7 0.0000000000000000e+00 8.4584200000000003e+00 8.7911099999999998e+00 4.7824400000000002e+00 0 0 0
7079 444 7 0.0000000000000000e+00 1.0996190000000000e+01 1.0256300000000000e+01 4.7824499999999999e+00 0 0 0
7049 444 7 0.0000000000000000e+00 1.1841820000000000e+01 0.0000000000000000e+00 0.0000000000000000e+00 0 0 0
7050 444 7 0.0000000000000000e+00 1.4379600000000000e+01 1.4651900000000000e+00 0.0000000000000000e+00 0 0 0
7051 444 7 -7.6390000000000000e-02 1.1841870000000000e+01 0.0000000000000000e+00 7.1781499999999996e+00 0 0 0
7052 444 7 -7.6390000000000000e-02 1.4379650000000000e+01 1.4651900000000000e+00 7.1781499999999996e+00 0 0 0
7053 444 7 0.0000000000000000e+00 1.2687749999999999e+01 1.4651900000000000e+00 2.3926400000000001e+00 0 0 0
7054 444 7 0.0000000000000000e+00 1.5225519999999999e+01 0.0000000000000000e+00 2.3926400000000001e+00 0 0 0
7056 444 7 0.0000000000000000e+00 1.3533960000000000e+01 0.0000000000000000e+00 4.7824499999999999e+00 0 0 0
7057 444 7 0.0000000000000000e+00 1.1841820000000000e+01 2.9303699999999999e+00 0.0000000000000000e+00 0 0 0
7058 444 7 0.0000000000000000e+00 1.4379600000000000e+01 4.3955599999999997e+00 0.0000000000000000e+00 0 0 0
7059 444 7 -7.6390000000000000e-02 1.1841870000000000e+01 2.9303699999999999e+00 7.1781899999999998e+00 0 0 0
7060 444 7 -7.6390000000000000e-02 1.4379650000000000e+01 4.3955599999999997e+00 7.1781600000000001e+00 0 0 0
7061 444 7 0.0000000000000000e+00 1.2687749999999999e+01 4.3955599999999997e+00 2.3926400000000001e+00 0 0 0
7062 444 7 0.0000000000000000e+00 1.5225519999999999e+01 2.9303699999999999e+00 2.3926400000000001e+00 0 0 0
7064 444 7 0.0000000000000000e+00 1.3533970000000000e+01 2.9303699999999999e+00 4.7824400000000002e+00 0 0 0
7065 444 7 0.0000000000000000e+00 1.1841820000000000e+01 5.8607399999999998e+00 0.0000000000000000e+00 0 0 0
7066 444 7 0.0000000000000000e+00 1.4379600000000000e+01 7.3259299999999996e+00 0.0000000000000000e+00 0 0 0
7067 444 7 -7.6390000000000000e-02 1.1841870000000000e+01 5.8607399999999998e+00 7.1781499999999996e+00 0 0 0
7068 444 7 -7.6390000000000000e-02 1.4379650000000000e+01 7.3259299999999996e+00 7.1781499999999996e+00 0 0 0
7069 444 7 0.0000000000000000e+00 1.2687749999999999e+01 7.3259299999999996e+00 2.3926400000000001e+00 0 0 0
7070 444 7 0.0000000000000000e+00 1.5225519999999999e+01 5.8607399999999998e+00 2.3926400000000001e+00 0 0 0
7072 444 7 0.0000000000000000e+00 1.3533960000000000e+01 5.8607399999999998e+00 4.7824499999999999e+00 0 0 0
7073 444 7 0.0000000000000000e+00 1.1841820000000000e+01 8.7911099999999998e+00 0.0000000000000000e+00 0 0 0
7074 444 7 0.0000000000000000e+00 1.4379600000000000e+01 1.0256300000000000e+01 0.0000000000000000e+00 0 0 0
7075 444 7 -7.6390000000000000e-02 1.1841870000000000e+01 8.7911099999999998e+00 7.1781899999999998e+00 0 0 0
7076 444 7 -7.6390000000000000e-02 1.4379650000000000e+01 1.0256300000000000e+01 7.1781600000000001e+00 0 0 0
7077 444 7 0.0000000000000000e+00 1.2687749999999999e+01 1.0256300000000000e+01 2.3926400000000001e+00 0 0 0
7078 444 7 0.0000000000000000e+00 1.5225519999999999e+01 8.7911099999999998e+00 2.3926400000000001e+00 0 0 0
7080 444 7 0.0000000000000000e+00 1.3533970000000000e+01 8.7911099999999998e+00 4.7824400000000002e+00 0 0 0
823 444 2 -8.2999999999999996e-01 6.7286062496148480e+00 2.1116338971304014e+00 1.1737226904437893e+01 3 4 0
825 444 1 4.1499999999999998e-01 6.1538426758450555e+00 2.8684671983112375e+00 1.1622850134152776e+01 3 4 0
824 444 1 4.1499999999999998e-01 6.3253548563169737e+00 1.4221536264836059e+00 1.1209745017239479e+01 3 4 0
2206 444 2 -8.2999999999999996e-01 4.4580960838543984e+00 8.0403278287857916e+00 1.4819669976000533e+01 1 0 0
1669 444 2 -8.2999999999999996e-01 3.4240151289148959e+00 5.8269897257748084e+00 1.0592457019529691e+01 -1 5 0
1670 444 1 4.1499999999999998e-01 3.2779388481763529e+00 6.7683383895880906e+00 1.0498880271217086e+01 -1 5 0
1671 444 1 4.1499999999999998e-01 2.5581827688451746e+00 5.4367311578618303e+00 1.0473018263483050e+01 -1 5 0
1461 444 1 4.1499999999999998e-01 5.5564131185524657e-01 4.2801804736220630e+00 9.8648086357729330e+00 -3 -2 0
865 444 2 -8.2999999999999996e-01 5.7208584114815881e+00 4.2177968104539421e+00 1.0428406647995352e+01 7 -4 0
866 444 1 4.1499999999999998e-01 5.9139922384334609e+00 3.8307166028254973e+00 9.5745329467535161e+00 7 -4 0
2662 444 2 -8.2999999999999996e-01 1.8804350493856092e+00 3.2042948666132927e+00 1.2338945912508150e+01 2 -3 0
867 444 1 4.1499999999999998e-01 4.8170761174288170e+00 4.5242116096289076e+00 1.0354106791591338e+01 7 -4 0
2207 444 1 4.1499999999999998e-01 4.2118659864956838e+00 8.8652942237507766e+00 1.4401300393867110e+01 1 0 0
6413 444 1 4.1499999999999998e-01 1.2510378219038394e+00 8.5213960330573322e+00 1.2731742305159035e+01 -2 -1 0
703 444 6 2.9999999999999999e-02 4.4287660183992008e+00 2.4009239195835339e+00 1.3521179579742176e+01 -1 0 0
691 444 5 1.4000000000000001e-01 4.3683352124491304e+00 2.1048859015139785e+00 1.4618119971233506e+01 -1 0 0
720 444 3 1.0000000000000000e+00 9.7919767873534214e-01 2.6867772709767639e+00 1.4651677025974799e+01 -1 0 0
2664 444 1 4.1499999999999998e-01 2.3698005610044186e+00 2.5256401327544720e+00 1.1873991556134968e+01 2 -3 0
6412 444 2 -8.2999999999999996e-01 6.0790008948103591e-01 7.9002300456866266e+00 1.3073442238765871e+01 -2 -1 0
6414 444 1 4.1499999999999998e-01 1.4305995557573681e-01 7.5852606029189129e+00 1.2298232508886130e+01 -2 -1 0
2208 444 1 4.1499999999999998e-01 5.2202079710669835e+00 7.7386326626286337e+00 1.4325304174720818e+01 1 0 0
1072 444 2 -8.2999999999999996e-01 6.7058007860841524e+00 5.4161588073432014e+00 1.2428526676653046e+01 8 -2 0
707 444 6 2.9999999999999999e-02 4.1782262082318304e+00 3.1383335617836078e-01 1.5932851271472533e+01 -1 0 0
700 444 6 2.9999999999999999e-02 3.9675926052552577e+00 4.4902626324894683e+00 1.4027836889860398e+01 -1 0 0
2663 444 1 4.1499999999999998e-01 1.5751213975956044e+00 3.7945904450875618e+00 1.1650057267709476e+01 2 -3 0
701 444 6 2.9999999999999999e-02 4.6620643437108784e+00 4.4718506444782751e+00 1.5740671383993689e+01 -1 0 0
690 444 5 1.4000000000000001e-01 3.7770113983056484e+00 4.2225052931214817e+00 1.5130304185771960e+01 -1 0 0
685 444 4 -4.0000000000000002e-01 3.4348474322481128e+00 2.8686054490734971e+00 1.5358138072087671e+01 -1 0 0
702 444 6 2.9999999999999999e-02 5.3507688310545056e+00 2.2151956756144662e+00 1.5072904237443053e+01 -1 0 0
1459 444 2 -8.2999999999999996e-01 8.6276624654648226e-01 4.9130429845971220e+00 1.0513955474095381e+01 -3 -2 0
1074 444 1 4.1499999999999998e-01 7.3845097837805040e+00 5.9688268465103143e+00 1.2041042465201739e+01 8 -2 0
2594 444 1 4.1499999999999998e-01 6.7024062856388769e+00 1.0320018526913929e+01 1.5048226673656753e+01 4 0 0
2593 444 2 -8.2999999999999996e-01 6.6026683404349233e+00 1.0593440724402569e+01 1.5960106353597549e+01 4 0 0
2595 444 1 4.1499999999999998e-01 5.7255489545667624e+00 1.0974427724193299e+01 1.6001847964930711e+01 4 0 0
1532 444 1 4.1499999999999998e-01 3.0721949862049609e+00 9.7417045482101354e+00 1.0713942961185920e+01 3 -1 0
1531 444 2 -8.2999999999999996e-01 2.8600745306172874e+00 8.8119403139797914e+00 1.0631622009678809e+01 3 -1 0
1533 444 1 4.1499999999999998e-01 3.0570385658877428e+00 8.6007368798410742e+00 9.7190265216902763e+00 3 -1 0
5309 444 1 4.1499999999999998e-01 3.3405293849740181e+00 1.7622880451001444e+00 1.0148249269297384e+01 4 2 0
3700 444 2 -8.2999999999999996e-01 6.9827002387051538e+00 1.0613442331944432e+01 1.0211891156793811e+01 1 0 0
3701 444 1 4.1499999999999998e-01 6.3914718802547128e+00 9.9504732882448668e+00 1.0568477498363716e+01 1 0 0
5248 444 2 -8.2999999999999996e-01 5.3817865973687038e+00 8.4026176110421318e+00 1.1367245039759222e+01 -1 -2 0
5249 444 1 4.1499999999999998e-01 5.5029998876313968e+00 7.4547141873604001e+00 1.1312300719407400e+01 -1 -2 0
5752 444 2 -8.2999999999999996e-01 7.0689148667984654e+00 9.8999323739962115e+00 1.3357402637981879e+01 0 -3 0
5753 444 1 4.1499999999999998e-01 6.7106962646801946e+00 9.4003750909286108e+00 1.2623676184675105e+01 0 -3 0
5250 444 1 4.1499999999999998e-01 4.4490436106715991e+00 8.5354807917668332e+00 1.1198216353990638e+01 -1 -2 0
4130 444 1 4.1499999999999998e-01 4.6477644736135382e+00 1.1317947794374756e+01 1.0512363979283238e+01 1 5 0
4129 444 2 -8.2999999999999996e-01 3.8004577763477259e+00 1.1228986823679612e+01 1.0948700041398856e+01 1 5 0
687 444 4 -4.0000000000000002e-01 2.4641602243417697e+00 7.1455617886543321e-01 1.4809714258307970e+01 -1 0 0
3702 444 1 4.1499999999999998e-01 6.8724353167714476e+00 1.0548065388222112e+01 9.2633134493014655e+00 1 0 0
1073 444 1 4.1499999999999998e-01 6.2467832762465996e+00 5.0382657603098675e+00 1.1678372244511996e+01 8 -2 0
693 444 5 1.4000000000000001e-01 3.9058644638682640e+00 6.5978263423693162e-01 1.4912737671009623e+01 -1 0 0
3583 444 2 -8.2999999999999996e-01 4.6090931254018669e-01 1.1265664678658615e+01 1.0858977715429431e+01 6 3 0
6180 444 1 4.1499999999999998e-01 2.8066701585545437e+00 1.0775523549612442e+01 1.2483142786915209e+01 -2 1 0
714 444 6 2.9999999999999999e-02 5.5862545616207626e-02 8.2545483153043261e-02 1.3442459060404836e+01 -1 0 0
5308 444 2 -8.2999999999999996e-01 2.9673539668941711e+00 1.3078964905076742e+00 1.0903563993908273e+01 4 2 0
3848 444 1 4.1499999999999998e-01 2.1410336772942253e+00 9.3776344939175811e+00 1.5640981475309184e+01 -2 3 0
5352 444 1 4.1499999999999998e-01 7.4181510749584962e+00 4.1046810570824936e+00 1.3986903142975633e+01 0 -4 0
2841 444 1 4.1499999999999998e-01 7.3633858261383578e+00 6.8025234378921802e+00 9.8662991620614999e+00 -2 2 0
1460 444 1 4.1499999999999998e-01 2.7569847243206391e-01 5.6625537967330963e+00 1.0414873433049451e+01 -3 -2 0
705 444 6 2.9999999999999999e-02 1.8554635517590397e+00 5.0022542751550345e+00 1.4870561410078205e+01 -1 0 0
692 444 5 1.4000000000000001e-01 2.5692978297828981e+00 4.9463264507676232e+00 1.5641703786724657e+01 -1 0 0
704 444 6 2.9999999999999999e-02 2.8557818934175563e+00 5.8711939552676951e+00 1.6115610323082457e+01 -1 0 0
3874 444 2 -8.2999999999999996e-01 1.0012623067952436e-01 1.7650876072350747e+00 1.0542221157445995e+01 1 -4 0
3584 444 1 4.1499999999999998e-01 2.0962870365831066e-01 1.0349352168099257e+01 1.0975002830440365e+01 6 3 0
6178 444 2 -8.2999999999999996e-01 2.0543720845994438e+00 1.0514738468223131e+01 1.3014435118430759e+01 -2 1 0
689 444 4 -4.0000000000000002e-01 2.6036499336123342e-01 5.1659749694434154e-01 1.5513375427001524e+01 -1 0 0
3875 444 1 4.1499999999999998e-01 1.0080680761948115e+00 1.6058821912943353e+00 1.0284292320692959e+01 1 -4 0
5310 444 1 4.1499999999999998e-01 2.7857321447851398e+00 4.2341224014806778e-01 1.0585864332872250e+01 4 2 0
6179 444 1 4.1499999999999998e-01 1.2929782751392431e+00 1.0789915594428610e+01 1.2503759311570812e+01 -2 1 0
3849 444 1 4.1499999999999998e-01 1.5554759323557115e+00 8.2871460991807915e+00 1.4769286289710941e+01 -2 3 0
3585 444 1 4.1499999999999998e-01 7.7013478497281629e-01 1.1317042276514993e+01 9.9545596691716103e+00 6 3 0
3847 444 2 -8.2999999999999996e-01 1.6857349145939022e+00 8.5367585722005224e+00 1.5684140662888757e+01 -2 3 0
1598 444 1 4.1499999999999998e-01 2.5518578944400612e+00 1.1506727497660014e+01 1.4894713502249784e+01 3 0 0
5754 444 1 4.1499999999999998e-01 7.9050312896141612e+00 1.0235338265744511e+01 1.3033914683613721e+01 0 -3 0
640 444 6 2.9999999999999999e-02 1.4781118911410745e+01 8.8780893054423728e+00 1.2843005054640564e+01 -1 1 0
2840 444 1 4.1499999999999998e-01 8.7229484451796164e+00 7.2147625042638373e+00 1.0389313219737035e+01 -2 2 0
2839 444 2 -8.2999999999999996e-01 7.8423952038192422e+00 6.9738715159176996e+00 1.0677114687821387e+01 -2 2 0
989 444 1 4.1499999999999998e-01 1.2177739017693012e+01 5.2628372480884789e+00 1.0133420733577122e+01 4 -1 0
4084 444 2 -8.2999999999999996e-01 1.3764787969387031e+01 6.2699550708502763e+00 1.0361168448740754e+01 -6 4 0
4085 444 1 4.1499999999999998e-01 1.4541082911334252e+01 6.8247245691093417e+00 1.0284821089077695e+01 -6 4 0
5329 444 2 -8.2999999999999996e-01 1.2144792801661126e+01 2.2108122517051316e+00 1.4318663795264220e+01 10 -4 0
5330 444 1 4.1499999999999998e-01 1.1591012162578023e+01 2.7509856945946058e+00 1.3754951508596509e+01 10 -4 0
5331 444 1 4.1499999999999998e-01 1.2922630264631232e+01 2.0316564005425524e+00 1.3790360913663600e+01 10 -4 0
6391 444 2 -8.2999999999999996e-01 1.2990326081392780e+01 1.0312843007061648e+01 1.0583386817644413e+01 -2 3 0
6393 444 1 4.1499999999999998e-01 1.3825270434300464e+01 1.0772882323002417e+01 1.0496989027198937e+01 -2 3 0
6392 444 1 4.1499999999999998e-01 1.2664903406164406e+01 1.0235690263224859e+01 9.6865147111195871e+00 -2 3 0
4078 444 2 -8.2999999999999996e-01 9.1854027500234192e+00 2.4600082218185633e+00 1.0577335556379090e+01 -1 1 0
4080 444 1 4.1499999999999998e-01 9.1341676394078775e+00 2.5229909780248669e+00 9.6235849982774457e+00 -1 1 0
4079 444 1 4.1499999999999998e-01 8.3383032936257209e+00 2.7825015784389531e+00 1.0884992755631334e+01 -1 1 0
4081 444 2 -8.2999999999999996e-01 1.0388348343095126e+01 7.7146569121370812e+00 1.0405389080653736e+01 1 -1 0
2110 444 2 -8.2999999999999996e-01 1.1825304484839050e+01 8.8268832506551345e+00 1.2388797313413045e+01 -3 -6 0
648 444 3 1.0000000000000000e+00 1.2823549701189714e+01 9.0455012594791757e+00 1.4544575666350109e+01 -1 1 0
2111 444 1 4.1499999999999998e-01 1.2264699824047060e+01 9.2752746647610138e+00 1.1666226374510703e+01 -3 -6 0
2112 444 1 4.1499999999999998e-01 1.1040730705573873e+01 8.4466787627316080e+00 1.1993676581366891e+01 -3 -6 0
953 444 1 4.1499999999999998e-01 1.1217719888669826e+01 4.0781317201783009e+00 1.1571563802898568e+01 1 2 0
638 444 6 2.9999999999999999e-02 9.7253878170847656e+00 7.1356138069330042e+00 1.4581632395058682e+01 -1 1 0
988 444 2 -8.2999999999999996e-01 1.1221045668345837e+01 5.2366757097116885e+00 1.0116500450283644e+01 4 -1 0
990 444 1 4.1499999999999998e-01 1.1007239545887368e+01 4.8119190900581872e+00 9.2857773290887611e+00 4 -1 0
646 444 6 2.9999999999999999e-02 1.3463525269840749e+01 4.7014721106035680e+00 1.4721248146969069e+01 -1 1 0
627 444 5 1.4000000000000001e-01 1.3716293414567021e+01 5.6989659013643115e+00 1.5002989798159778e+01 -1 1 0
4083 444 1 4.1499999999999998e-01 1.0503998353225793e+01 6.7705177956819327e+00 1.0512432528674054e+01 1 -1 0
617 444 4 -4.0000000000000002e-01 1.2586025806057904e+01 6.6156108936526747e+00 1.5099054310123243e+01 -1 1 0
643 444 6 2.9999999999999999e-02 1.1178388736455519e+01 5.2925911476261360e+00 1.4501922692863635e+01 -1 1 0
625 444 5 1.4000000000000001e-01 1.1378601466389057e+01 5.9334322362053573e+00 1.5336679684003590e+01 -1 1 0
615 444 4 -4.0000000000000002e-01 1.1101666940734647e+01 8.0626745146558481e+00 1.5912836854086452e+01 -1 1 0
623 444 5 1.4000000000000001e-01 1.0276600521829010e+01 6.9987531313346487e+00 1.5515696723853903e+01 -1 1 0
621 444 5 1.4000000000000001e-01 1.0480992415100699e+01 9.3287846875000344e+00 1.5569439814262033e+01 -1 1 0
5351 444 1 4.1499999999999998e-01 7.8044875699260965e+00 2.6729625652612592e+00 1.3682236832203749e+01 0 -4 0
5350 444 2 -8.2999999999999996e-01 8.0562749602379782e+00 3.4282162197935739e+00 1.4213676035468719e+01 0 -4 0
6260 444 1 4.1499999999999998e-01 1.0312541960891688e+01 1.9355232302421992e+00 1.5480397353498669e+01 3 1 0
4086 444 1 4.1499999999999998e-01 1.3069048027050034e+01 6.8672350454660185e+00 1.0635821710502389e+01 -6 4 0
642 444 6 2.9999999999999999e-02 1.1386005533899313e+01 5.2692027740069882e+00 1.6159739806035521e+01 -1 1 0
4082 444 1 4.1499999999999998e-01 1.0885269161519105e+01 7.9293287814183264e+00 9.6159477923459793e+00 1 -1 0
6634 444 2 -8.2999999999999996e-01 9.2463473368713736e+00 9.7213752540479401e+00 1.1497103381625594e+01 -8 0 0
6635 444 1 4.1499999999999998e-01 9.5112948756543592e+00 8.9600730191645628e+00 1.0980911956164539e+01 -8 0 0
6636 444 1 4.1499999999999998e-01 8.5667418131995756e+00 1.0143129197007875e+01 1.0971278503187513e+01 -8 0 0
635 444 6 2.9999999999999999e-02 1.0555775703993223e+01 9.5401077626064517e+00 1.4492212092383863e+01 -1 1 0
952 444 2 -8.2999999999999996e-01 1.1166561560899925e+01 3.3066067336644447e+00 1.2135801256547021e+01 1 2 0
6261 444 1 4.1499999999999998e-01 8.9680919605292306e+00 2.6310976855912700e+00 1.5457468630348115e+01 3 1 0
634 444 6 2.9999999999999999e-02 9.4014617276935279e+00 9.4312691127814787e+00 1.5786003878217011e+01 -1 1 0
6259 444 2 -8.2999999999999996e-01 9.6474035921491001e+00 2.3162883954509677e+00 1.6053844100686266e+01 3 1 0
2005 444 2 -8.2999999999999996e-01 1.4136232478068534e+01 2.8583930722855930e+00 1.2347824222110525e+01 1 -2 0
954 444 1 4.1499999999999998e-01 1.0442851725993400e+01 2.7937365777510648e+00 1.1776023307557010e+01 1 2 0
630 444 6 2.9999999999999999e-02 1.1643160447218168e+01 1.1135993427929666e+01 1.5668114466245607e+01 -1 1 0
2006 444 1 4.1499999999999998e-01 1.3248913746146876e+01 3.0544657823389483e+00 1.2047070137236741e+01 1 -2 0
5897 444 1 4.1499999999999998e-01 1.2348294662855862e+01 9.5638545278768017e-01 1.5751597229527063e+01 -1 0 0
647 444 6 2.9999999999999999e-02 1.4288005902974870e+01 5.6568824751830649e+00 1.5932039061650691e+01 -1 1 0
1600 444 2 -8.2999999999999996e-01 1.2829351295311501e+01 1.1302396240802651e+01 1.3436384989405539e+01 -3 -4 0
1209 444 1 4.1499999999999998e-01 1.1626229191391818e+01 6.6375903325483798e-01 1.0023112534773428e+01 -1 1 0
1601 444 1 4.1499999999999998e-01 1.2524309497562031e+01 1.1313943058547988e+01 1.2529164918972246e+01 -3 -4 0
1208 444 1 4.1499999999999998e-01 1.2899705635075966e+01 1.3734800591798456e-02 1.0520728756843980e+01 -1 1 0
614 444 4 -4.0000000000000002e-01 1.4867050729450414e+01 9.7864117788022877e+00 1.5678601620816762e+01 -1 1 0
2772 444 1 4.1499999999999998e-01 9.8556352769538620e+00 1.1220218328766826e+01 1.2235836078280466e+01 1 2 0
626 444 5 1.4000000000000001e-01 1.4645980793905974e+01 6.3734005745287945e+00 1.4018609498755412e+01 -1 1 0
645 444 6 2.9999999999999999e-02 1.4230563777589230e+01 6.4396326535057380e+00 1.3043895269318202e+01 -1 1 0
3474 444 1 4.1499999999999998e-01 1.5120373757193827e+01 4.8504334768194326e+00 1.0281447851481335e+01 0 3 0
3708 444 1 4.1499999999999998e-01 1.4887987697493157e+01 2.4970323830833858e+00 1.6247041856527009e+01 -1 0 0
2007 444 1 4.1499999999999998e-01 1.4702688128837909e+01 3.1626109744730329e+00 1.1638731673415036e+01 1 -2 0
616 444 4 -4.0000000000000002e-01 1.4884741248978745e+01 7.6911180123274461e+00 1.4545687845328997e+01 -1 1 0
6054 444 1 4.1499999999999998e-01 9.2325494691949981e+00 7.0385292912941033e-01 1.1580309063218778e+01 0 3 0
3707 444 1 4.1499999999999998e-01 1.4717895572546883e+01 2.6410282885172469e+00 1.4749634412109637e+01 -1 0 0
1207 444 2 -8.2999999999999996e-01 1.1957982579699962e+01 5.8421251490152315e-02 1.0686239994979475e+01 -1 1 0
5410 444 2 -8.2999999999999996e-01 1.4684534526439414e+01 2.7933085776069788e-02 1.0491969793644179e+01 -2 0 0
2537 444 1 4.1499999999999998e-01 8.0343691676174878e+00 2.0045490033531621e-02 1.3360865559539461e+01 -1 -4 0
4336 444 2 -8.2999999999999996e-01 1.3498101006126256e-01 1.1161820848141122e+01 1.8970999605813358e+01 -5 -2 0
6530 444 1 4.1499999999999998e-01 1.1223328718284282e+00 8.4812974548230287e+00 2.3934026819381007e+01 -1 -1 0
4647 444 1 4.1499999999999998e-01 1.0015710379432812e+00 6.1560028793252330e+00 2.2988548372611522e+01 1 5 0
4475 444 1 4.1499999999999998e-01 3.1867409472460656e-01 1.0808708795728204e+01 2.3573813891476689e+01 3 -2 0
688 444 4 -4.0000000000000002e-01 9.8417084837938554e-02 2.5024619592315740e+00 1.6840409834516947e+01 -1 0 0
2489 444 1 4.1499999999999998e-01 1.7319272506807413e+00 8.5473091889208401e+00 1.7412962932393423e+01 -1 0 0
1940 444 1 4.1499999999999998e-01 1.1924569572450281e+00 1.0384037908222460e+01 2.1151205162670603e+01 1 0 0
6529 444 2 -8.2999999999999996e-01 4.4806018022105315e-01 7.8040403472230926e+00 2.3880070223755233e+01 -1 -1 0
709 444 6 2.9999999999999999e-02 1.5108831264215605e+00 5.0677681136261716e+00 1.8238849665822894e+01 -1 0 0
1812 444 1 4.1499999999999998e-01 4.3569455945843574e+00 7.9365577815633150e+00 1.6571720893712680e+01 2 1 0
1811 444 1 4.1499999999999998e-01 3.5727582193356149e+00 8.0571208669415189e+00 1.7861066131884336e+01 2 1 0
1810 444 2 -8.2999999999999996e-01 4.3428638025244446e+00 7.6351584995241177e+00 1.7480122351189213e+01 2 1 0
5948 444 1 4.1499999999999998e-01 1.9702567420251069e+00 7.0901779739749466e+00 1.9679906924496979e+01 -3 -2 0
712 444 6 2.9999999999999999e-02 5.6879648929302906e-01 3.0535684467759783e+00 1.8802322608899097e+01 -1 0 0
6471 444 1 4.1499999999999998e-01 1.9955930082197448e+00 1.5280100933151013e+00 2.1972537258189558e+01 -1 1 0
686 444 4 -4.0000000000000002e-01 2.0086031979199408e+00 3.9750406183679754e+00 1.6549210045733030e+01 -1 0 0
5949 444 1 4.1499999999999998e-01 3.1646602658692178e+00 6.1677066153080089e+00 1.9799665088341765e+01 -3 -2 0
1939 444 2 -8.2999999999999996e-01 8.2494963114682318e-01 1.0214248548617917e+01 2.2018581981977736e+01 1 0 0
4219 444 2 -8.2999999999999996e-01 4.6597495890658083e+00 9.1019406229869020e+00 2.0457463014330834e+01 4 -2 0
3446 444 1 4.1499999999999998e-01 3.5495501016333471e+00 2.7486131383299703e+00 1.8223501057116479e+01 3 7 0
5302 444 2 -8.2999999999999996e-01 7.0256835520573970e+00 1.9369755442462819e+00 1.9237833543483116e+01 2 1 0
2969 444 1 4.1499999999999998e-01 4.3429455318796766e+00 2.6201077345950012e+00 2.1952956856503690e+01 -2 -4 0
5304 444 1 4.1499999999999998e-01 6.0788061666057676e+00 2.0652684662899237e+00 1.9294370951693427e+01 2 1 0
2968 444 2 -8.2999999999999996e-01 4.0699395928437951e+00 1.8483845184537964e+00 2.1456828961054612e+01 -2 -4 0
2970 444 1 4.1499999999999998e-01 4.1002102372859799e+00 2.1281796642464292e+00 2.0541935401852577e+01 -2 -4 0
5303 444 1 4.1499999999999998e-01 7.3434974767097874e+00 2.1007793290762864e+00 2.0125750121803772e+01 2 1 0
2907 444 1 4.1499999999999998e-01 4.4702130255046146e+00 6.2151558193872036e+00 1.8428329171070935e+01 -2 3 0
2906 444 1 4.1499999999999998e-01 5.4736830269694314e+00 5.6044859468145338e+00 1.9383329414755060e+01 -2 3 0