LAMMPS data file via write_data, version 11 Aug 2017, timestep = 500000

7368 atoms
7 atom types
4240 bonds
5 bond types
2390 angles
3 angle types
450 dihedrals
2 dihedral types

0.0000000000000000e+00 4.5679949999999998e+01 xlo xhi
0.0000000000000000e+00 4.6885919999999999e+01 ylo yhi
0.0000000000000000e+00 6.5000000000000000e+01 zlo zhi

Masses

1 1.0079
2 15.9994
3 22.9898
4 15.9994
5 12.011
6 1.0079
7 107.868

Angle Coeffs # harmonic

1 50 109.471
2 50 104.51
3 55 104.52

Dihedral Coeffs # charmm

1 0.111111 3 0 0
2 0.333333 3 0 0

Atoms # full

6217 444 7 0.0000000000000000e+00 1.6907200000000000e+00 0.0000000000000000e+00 0.0000000000000000e+00 0 0 0
6218 444 7 0.0000000000000000e+00 4.2285000000000004e+00 1.4651900000000000e+00 0.0000000000000000e+00 0 0 0
6219 444 7 -2.0830000000000001e-02 1.6907700000000001e+00 0.0000000000000000e+00 7.1781499999999996e+00 0 0 0
6220 444 7 -2.0830000000000001e-02 4.2285500000000003e+00 1.4651900000000000e+00 7.1781499999999996e+00 0 0 0
6221 444 7 0.0000000000000000e+00 2.5366499999999998e+00 1.4651900000000000e+00 2.3926400000000001e+00 0 0 0
6222 444 7 0.0000000000000000e+00 5.0744199999999999e+00 0.0000000000000000e+00 2.3926400000000001e+00 0 0 0
6223 444 7 0.0000000000000000e+00 8.4509000000000001e-01 1.4651900000000000e+00 4.7824200000000001e+00 0 0 0
6224 444 7 0.0000000000000000e+00 3.3828600000000000e+00 0.0000000000000000e+00 4.7824499999999999e+00 0 0 0
6225 444 7 0.0000000000000000e+00 1.6907200000000000e+00 2.9303699999999999e+00 0.0000000000000000e+00 0 0 0
6226 444 7 0.0000000000000000e+00 4.2285000000000004e+00 4.3955599999999997e+00 0.0000000000000000e+00 0 0 0
6227 444 7 -2.0830000000000001e-02 1.6907700000000001e+00 2.9303699999999999e+00 7.1781899999999998e+00 0 0 0
6228 444 7 -2.0830000000000001e-02 4.2285500000000003e+00 4.3955599999999997e+00 7.1781600000000001e+00 0 0 0
6229 444 7 0.0000000000000000e+00 2.5366499999999998e+00 4.3955599999999997e+00 2.3926400000000001e+00 0 0 0
6230 444 7 0.0000000000000000e+00 5.0744199999999999e+00 2.9303699999999999e+00 2.3926400000000001e+00 0 0 0
6231 444 7 0.0000000000000000e+00 8.4509000000000001e-01 4.3955599999999997e+00 4.7824499999999999e+00 0 0 0
6232 444 7 0.0000000000000000e+00 3.3828700000000000e+00 2.9303699999999999e+00 4.7824400000000002e+00 0 0 0
3987 444 1 4.1499999999999998e-01 2.8130573555890530e+00 3.8775587691545486e+00 9.7896049095516204e+00 -1 -1 0
3985 444 2 -8.2999999999999996e-01 3.4548672260397524e+00 4.5329111889238121e+00 1.0063147417318740e+01 -1 -1 0
5112 444 1 4.1499999999999998e-01 2.0790508774642209e+00 2.9147143451352902e+00 1.2809466451221201e+01 0 2 0
4909 444 2 -8.2999999999999996e-01 8.2336016076642582e-01 3.4577745365853203e+00 1.0433836651605551e+01 -2 4 0
3986 444 1 4.1499999999999998e-01 2.9992653603241459e+00 5.3693355018446001e+00 9.9679984874873888e+00 -1 -1 0
5110 444 2 -8.2999999999999996e-01 1.3306348493243227e+00 2.3196535501225957e+00 1.2854277039358358e+01 0 2 0
2343 444 1 4.1499999999999998e-01 5.1840770789462176e-01 6.0999644216827198e-01 1.5279750445546524e+01 2 1 0
5062 444 2 -8.2999999999999996e-01 3.0929901603475773e+00 4.1419327474439962e+00 1.3012438173904849e+01 -2 3 0
2220 444 1 4.1499999999999998e-01 5.2531699499643203e+00 1.1066327638039324e+00 1.4982621222622686e+01 1 -1 0
4910 444 1 4.1499999999999998e-01 1.0673097719403639e+00 2.8123342885493621e+00 1.1097257686036158e+01 -2 4 0
5064 444 1 4.1499999999999998e-01 3.2226114218751762e+00 4.8433390411832171e+00 1.2374112483807945e+01 -2 3 0
366 444 1 4.1499999999999998e-01 4.6745200923089572e+00 1.1643484484838611e+00 1.3146486306045430e+01 6 0 0
742 444 2 -8.2999999999999996e-01 2.2478935172549361e+00 3.8052190575131095e-01 1.4657861603292863e+01 2 1 0
743 444 1 4.1499999999999998e-01 2.1167501348465620e+00 9.0479226004257141e-01 1.3867814819876733e+01 2 1 0
5063 444 1 4.1499999999999998e-01 3.7394580869007048e+00 4.3172547750648205e+00 1.3696232102198817e+01 -2 3 0
2405 444 1 4.1499999999999998e-01 5.5654600499295688e+00 5.5412487806849979e+00 1.5361003690774750e+01 -2 -1 0
486 444 1 4.1499999999999998e-01 4.9329114711569855e-01 5.2864994219790145e+00 1.0670495390568954e+01 4 4 0
5151 444 1 4.1499999999999998e-01 3.2733068715096147e-01 5.1638685000280207e+00 1.5791193619053129e+01 -1 2 0
364 444 2 -8.2999999999999996e-01 4.6308320443546949e+00 1.5560528571382106e+00 1.2274195017872868e+01 6 0 0
2218 444 2 -8.2999999999999996e-01 4.7970716024268674e+00 3.5352848935932235e-01 1.4607067957136870e+01 1 -1 0
2114 444 1 4.1499999999999998e-01 3.9967418985780738e+00 3.7455211193570265e-01 1.0922609288382299e+01 -1 0 0
2341 444 2 -8.2999999999999996e-01 3.3897442302511349e-02 8.0963998249449753e-01 1.6080764878773333e+01 2 1 0
365 444 1 4.1499999999999998e-01 4.3417535966538896e+00 2.4553071787893552e+00 1.2429138197980638e+01 6 0 0
744 444 1 4.1499999999999998e-01 3.1796056095521283e+00 1.6130344742151689e-01 1.4648492718876216e+01 2 1 0
2404 444 2 -8.2999999999999996e-01 5.3412121854328101e+00 5.1047900565062214e+00 1.4539146934256140e+01 -2 -1 0
3780 444 1 4.1499999999999998e-01 4.9612784433906354e+00 5.3545293231449271e+00 1.0741911417564854e+01 -4 3 0
5111 444 1 4.1499999999999998e-01 6.9193721911377193e-01 2.7780355425379115e+00 1.3400338565411630e+01 0 2 0
799 444 2 -8.2999999999999996e-01 5.5300340851438143e+00 1.5478224313011033e-01 1.8705742342329643e+01 1 3 0
865 444 2 -8.2999999999999996e-01 3.6530846947595328e+00 7.2171339261287648e-01 2.0947022042066720e+01 -1 0 0
4607 444 1 4.1499999999999998e-01 4.8241422999515331e+00 4.2994891915048488e+00 2.2709659924843450e+01 1 5 0
2718 444 1 4.1499999999999998e-01 1.9648300241249455e+00 1.7951561394810445e+00 1.8900266240226902e+01 3 -1 0
4427 444 1 4.1499999999999998e-01 2.3973839480996424e+00 4.6860291084162142e+00 2.1945732378390439e+01 -1 1 0
4606 444 2 -8.2999999999999996e-01 4.1458239923203006e+00 4.7197813846239445e+00 2.2181010101796190e+01 1 5 0
867 444 1 4.1499999999999998e-01 3.4568896207748612e+00 1.6467308337988560e+00 2.0798418861951792e+01 -1 0 0
2717 444 1 4.1499999999999998e-01 4.6341912904681848e-01 1.8150399959037560e+00 1.9093309471034285e+01 3 -1 0
285 444 1 4.1499999999999998e-01 3.6518315540392989e+00 3.4853592580090016e+00 1.8763682667141833e+01 1 2 0
5502 444 1 4.1499999999999998e-01 9.1162459628077130e-01 5.0467505998996014e+00 1.9715167714390972e+01 -8 -2 0
5500 444 2 -8.2999999999999996e-01 1.1277092199483085e-01 5.1490559853622102e+00 1.9197868517499838e+01 -8 -2 0
283 444 2 -8.2999999999999996e-01 3.3368509498486905e+00 3.2733822241096604e+00 1.9642366565333376e+01 1 2 0
284 444 1 4.1499999999999998e-01 3.5000175297635154e+00 4.0660587563038764e+00 2.0153515698535656e+01 1 2 0
6088 444 2 -8.2999999999999996e-01 6.8346065104264697e-01 2.2926489754258115e+00 2.2097679716458998e+01 -2 2 0
2342 444 1 4.1499999999999998e-01 7.1015496469457939e-01 1.0264846634781915e+00 1.6722548333199100e+01 2 1 0
6089 444 1 4.1499999999999998e-01 1.0964830774381700e+00 1.4402841852940529e+00 2.2235950463369534e+01 -2 2 0
2716 444 2 -8.2999999999999996e-01 1.1948790628431449e+00 1.2265030152358929e+00 1.8906698089961587e+01 3 -1 0
866 444 1 4.1499999999999998e-01 4.5801235947454479e+00 7.0823815956585290e-01 2.1185035410475912e+01 -1 0 0
4608 444 1 4.1499999999999998e-01 4.5056976066605188e+00 5.5811816258724392e+00 2.1969556768076039e+01 1 5 0
4426 444 2 -8.2999999999999996e-01 1.4518106828173618e+00 4.8337104354864078e+00 2.1963434208434276e+01 -1 1 0
4428 444 1 4.1499999999999998e-01 1.0793480543841334e+00 3.9786012116274443e+00 2.2178589954229473e+01 -1 1 0
5974 444 2 -8.2999999999999996e-01 4.5936514976613676e+00 5.6998755877749563e+00 1.9094688553055658e+01 -1 -1 0
800 444 1 4.1499999999999998e-01 4.5843414373199805e+00 2.6417043086862180e-01 1.8606084381500018e+01 1 3 0
2576 444 1 4.1499999999999998e-01 5.6737250503806758e+00 3.1318075915451811e+00 2.4303851456041308e+01 2 3 0
6090 444 1 4.1499999999999998e-01 3.1590892124189418e-01 2.2409240960984809e+00 2.1215374623848376e+01 -2 2 0
1313 444 1 4.1499999999999998e-01 2.4014880215489249e+00 5.5352587754166427e+00 2.3705296649093757e+01 0 0 0
2013 444 1 4.1499999999999998e-01 1.2172331185723806e-01 8.1377917289566037e-01 3.1585352375638340e+01 -1 -1 0
3500 444 1 4.1499999999999998e-01 1.0031015294796866e+00 4.0764791394734745e+00 2.9736344418940920e+01 1 3 0
4194 444 1 4.1499999999999998e-01 5.4592338709036907e+00 1.8744845721637573e+00 2.9678660693537932e+01 1 1 0
1390 444 2 -8.2999999999999996e-01 2.4979212458266087e+00 1.3955067390439440e+00 3.1564345287622007e+01 2 4 0
415 444 2 -8.2999999999999996e-01 2.8505460093139035e-01 3.6513687391185194e+00 2.5620320992986141e+01 0 -2 0
894 444 1 4.1499999999999998e-01 5.2393061563920602e+00 4.9138937933601543e+00 3.2001359289103824e+01 4 -2 0
1391 444 1 4.1499999999999998e-01 3.1802577103829197e+00 1.0200477795725289e+00 3.1007855460488894e+01 2 4 0
3501 444 1 4.1499999999999998e-01 6.2952255811979685e-01 5.4445444474529268e+00 3.0266185762918635e+01 1 3 0
5220 444 1 4.1499999999999998e-01 3.0010247270748764e+00 2.5598358749119918e+00 2.8737378105164108e+01 -2 3 0
2334 444 1 4.1499999999999998e-01 4.6050877303541569e+00 5.4471024080556152e+00 3.0053179940973443e+01 -1 2 0
2332 444 2 -8.2999999999999996e-01 4.4981011497820012e+00 4.6047776986995279e+00 3.0495080678625687e+01 -1 2 0
2333 444 1 4.1499999999999998e-01 3.9041251390305916e+00 4.1109427900417286e+00 2.9929791411391815e+01 -1 2 0
621 444 1 4.1499999999999998e-01 3.7753946899608617e+00 3.3166413010468991e+00 2.6117997843734980e+01 0 -1 0
2215 444 2 -8.2999999999999996e-01 4.9266243771644183e+00 4.4779695435937500e-01 2.6291163428444136e+01 0 2 0
5219 444 1 4.1499999999999998e-01 2.3528711619106395e+00 3.8627186282863688e+00 2.8319899010100329e+01 -2 3 0
1392 444 1 4.1499999999999998e-01 2.2019908175109157e+00 2.1724940188354163e+00 3.1090058299959061e+01 2 4 0
619 444 2 -8.2999999999999996e-01 4.5894172768647188e+00 3.0949506630350223e+00 2.5665833689967830e+01 0 -1 0
3040 444 2 -8.2999999999999996e-01 2.3756780561913255e+00 5.0935641108503251e+00 2.7225445994340607e+01 3 0 0
620 444 1 4.1499999999999998e-01 4.7512558676444678e+00 2.1804254311954945e+00 2.5897533840576340e+01 0 -1 0
3041 444 1 4.1499999999999998e-01 2.6328845221916413e+00 5.5341499218907604e+00 2.6415531876551945e+01 3 0 0
5218 444 2 -8.2999999999999996e-01 2.4324758737354801e+00 3.2595631390779856e+00 2.9058883750427078e+01 -2 3 0
417 444 1 4.1499999999999998e-01 2.6326243322781173e-01 4.3311078445515525e+00 2.4946739689573697e+01 0 -2 0
4318 444 2 -8.2999999999999996e-01 4.1910565823155377e+00 4.4464766627659219e-01 2.9831715719355188e+01 -3 -1 0
3499 444 2 -8.2999999999999996e-01 2.6369032836809059e-01 4.5807474307307556e+00 3.0075781774895940e+01 1 3 0
416 444 1 4.1499999999999998e-01 1.0976815887277491e+00 3.8140852132355945e+00 2.6099270612363899e+01 0 -2 0
4193 444 1 4.1499999999999998e-01 5.6435775659689567e+00 3.1790198623172281e+00 3.0424382371805439e+01 1 1 0
4319 444 1 4.1499999999999998e-01 3.4919711667769637e+00 1.8957881711954347e-01 2.9229676386793631e+01 -3 -1 0
3042 444 1 4.1499999999999998e-01 2.2335633623253366e+00 5.8043475934457023e+00 2.7850603776418858e+01 3 0 0
2217 444 1 4.1499999999999998e-01 4.0638601729490587e+00 7.5780443178594226e-02 2.6474121263269616e+01 0 2 0
1445 444 1 4.1499999999999998e-01 8.6381239640573437e-01 1.0480088252310313e+00 3.4686687730235377e+01 2 -3 0
1046 444 1 4.1499999999999998e-01 2.3056006499042430e+00 7.2511524105052982e-01 3.3150671241434424e+01 0 3 0
1045 444 2 -8.2999999999999996e-01 2.4153443720984815e+00 4.1631596181726355e-01 3.4050021711631416e+01 0 3 0
6233 444 7 0.0000000000000000e+00 1.6907200000000000e+00 5.8607399999999998e+00 0.0000000000000000e+00 0 0 0
6234 444 7 0.0000000000000000e+00 4.2285000000000004e+00 7.3259299999999996e+00 0.0000000000000000e+00 0 0 0
6235 444 7 -2.0830000000000001e-02 1.6907700000000001e+00 5.8607399999999998e+00 7.1781499999999996e+00 0 0 0
6236 444 7 -2.0830000000000001e-02 4.2285500000000003e+00 7.3259299999999996e+00 7.1781499999999996e+00 0 0 0
6237 444 7 0.0000000000000000e+00 2.5366499999999998e+00 7.3259299999999996e+00 2.3926400000000001e+00 0 0 0
6238 444 7 0.0000000000000000e+00 5.0744199999999999e+00 5.8607399999999998e+00 2.3926400000000001e+00 0 0 0
6239 444 7 0.0000000000000000e+00 8.4509000000000001e-01 7.3259299999999996e+00 4.7824200000000001e+00 0 0 0
6240 444 7 0.0000000000000000e+00 3.3828600000000000e+00 5.8607399999999998e+00 4.7824499999999999e+00 0 0 0
6241 444 7 0.0000000000000000e+00 1.6907200000000000e+00 8.7911099999999998e+00 0.0000000000000000e+00 0 0 0
6242 444 7 0.0000000000000000e+00 4.2285000000000004e+00 1.0256300000000000e+01 0.0000000000000000e+00 0 0 0
6243 444 7 -2.0830000000000001e-02 1.6907700000000001e+00 8.7911099999999998e+00 7.1781899999999998e+00 0 0 0
6244 444 7 -2.0830000000000001e-02 4.2285500000000003e+00 1.0256300000000000e+01 7.1781600000000001e+00 0 0 0
6245 444 7 0.0000000000000000e+00 2.5366499999999998e+00 1.0256300000000000e+01 2.3926400000000001e+00 0 0 0
6246 444 7 0.0000000000000000e+00 5.0744199999999999e+00 8.7911099999999998e+00 2.3926400000000001e+00 0 0 0
6247 444 7 0.0000000000000000e+00 8.4509000000000001e-01 1.0256300000000000e+01 4.7824499999999999e+00 0 0 0
6248 444 7 0.0000000000000000e+00 3.3828700000000000e+00 8.7911099999999998e+00 4.7824400000000002e+00 0 0 0
696 444 1 4.1499999999999998e-01 4.3493235964315486e+00 1.0339482310746838e+01 1.5896103367991341e+01 2 1 0
694 444 2 -8.2999999999999996e-01 3.6485637677720018e+00 9.7875519381906617e+00 1.6243292704010280e+01 2 1 0
695 444 1 4.1499999999999998e-01 3.0374579148721970e+00 9.6880452538666439e+00 1.5513306452727598e+01 2 1 0
2856 444 1 4.1499999999999998e-01 2.5967981094844816e+00 8.0869642295072790e+00 1.1048389965895137e+01 1 -2 0
3794 444 1 4.1499999999999998e-01 2.4632901120938624e+00 1.0733718544685933e+01 1.1381748729644221e+01 -2 -2 0
1164 444 1 4.1499999999999998e-01 1.8043291604538192e+00 9.8305710797751633e+00 1.3321642340737929e+01 0 1 0
3793 444 2 -8.2999999999999996e-01 2.0979975587841784e+00 9.8579998141967256e+00 1.1507883382824240e+01 -2 -2 0
1162 444 2 -8.2999999999999996e-01 1.5937509462455992e+00 1.0000820965241584e+01 1.4239740797197195e+01 0 1 0
2854 444 2 -8.2999999999999996e-01 2.8903517568557349e+00 7.1831802583250521e+00 1.0933352542679971e+01 1 -2 0
1457 444 1 4.1499999999999998e-01 4.0161032769943370e+00 9.6969367926782954e+00 1.2084605282259790e+01 4 2 0
1163 444 1 4.1499999999999998e-01 7.2817177084126739e-01 9.6113896124266276e+00 1.4363631267433554e+01 0 1 0
3795 444 1 4.1499999999999998e-01 1.2944122712577442e+00 9.8559768335883913e+00 1.0987807866545298e+01 -2 -2 0
2855 444 1 4.1499999999999998e-01 2.1095024523756671e+00 6.6544784324551252e+00 1.1097612628524857e+01 1 -2 0
1456 444 2 -8.2999999999999996e-01 4.8179720218452822e+00 9.3942753920796598e+00 1.2510791417921592e+01 4 2 0
3488 444 1 4.1499999999999998e-01 2.2149444156106768e-01 1.1435337099538991e+01 1.0704381495134824e+01 -4 -5 0
3779 444 1 4.1499999999999998e-01 4.9194634600958187e+00 6.8413449868709924e+00 1.1023914835398134e+01 -4 3 0
3214 444 2 -8.2999999999999996e-01 4.2042979665551723e+00 7.5550836265334311e+00 1.4365919170026929e+01 -1 1 0
3216 444 1 4.1499999999999998e-01 4.6284462495740550e+00 6.7353097142659157e+00 1.4112342131536149e+01 -1 1 0
3215 444 1 4.1499999999999998e-01 4.5868512132426114e+00 8.2128599548295842e+00 1.3785215333372136e+01 -1 1 0
3579 444 1 4.1499999999999998e-01 1.3107258963048589e+00 7.3691040702837354e+00 1.5471489616178715e+01 0 4 0
3778 444 2 -8.2999999999999996e-01 5.5224577837102240e+00 6.1016995379154544e+00 1.0949387456291030e+01 -4 3 0
1458 444 1 4.1499999999999998e-01 5.5173879058380031e+00 9.6301545795768231e+00 1.1901356392160539e+01 4 2 0
3577 444 2 -8.2999999999999996e-01 1.7255817840519432e+00 6.5065723133585305e+00 1.5484363046654613e+01 0 4 0
484 444 2 -8.2999999999999996e-01 3.7267453785093368e-01 6.2267601936084001e+00 1.0537852247085333e+01 4 4 0
995 444 1 4.1499999999999998e-01 5.5035257719426989e+00 7.5853363518325763e+00 1.5844179243342884e+01 -2 -2 0
3578 444 1 4.1499999999999998e-01 2.6364690767078511e+00 6.6747574892788579e+00 1.5243053314140152e+01 0 4 0
485 444 1 4.1499999999999998e-01 3.4756630615335610e-01 6.3337089128018036e+00 9.5869770208613527e+00 4 4 0
3855 444 1 4.1499999999999998e-01 3.5177753581021163e+00 1.1288134337296896e+01 9.2990377335003487e+00 1 -5 0
4270 444 2 -8.2999999999999996e-01 5.6816949109128982e+00 1.1108306875770820e+01 1.5422319202945610e+01 -3 0 0
3399 444 1 4.1499999999999998e-01 2.4567829868359405e+00 9.7941529671965810e+00 1.7259396513030456e+01 -1 0 0
5975 444 1 4.1499999999999998e-01 4.5384523076405392e+00 6.4322711105670507e+00 1.8480863063625549e+01 -1 -1 0
1314 444 1 4.1499999999999998e-01 3.3187635794920465e+00 6.5533582401488628e+00 2.4348705034592395e+01 0 0 0
3398 444 1 4.1499999999999998e-01 2.0190274585177139e+00 9.2807163229520615e+00 1.8614626518831503e+01 -1 0 0
5303 444 1 4.1499999999999998e-01 4.4116215933255596e+00 8.9228791676113364e+00 1.7394663026587398e+01 -4 -1 0
1464 444 1 4.1499999999999998e-01 4.1781888867031380e+00 9.4454589914687634e+00 2.0910289475682642e+01 1 -1 0
1462 444 2 -8.2999999999999996e-01 3.3221373560486844e+00 9.0288041189118218e+00 2.0811259320248972e+01 1 -1 0
1463 444 1 4.1499999999999998e-01 3.3869453144898340e+00 8.5392049499080613e+00 1.9991305003963404e+01 1 -1 0
5597 444 1 4.1499999999999998e-01 7.4340637511809171e-01 9.3143048616906245e+00 2.2632523281312004e+01 -2 -3 0
5302 444 2 -8.2999999999999996e-01 4.6614585863805456e+00 8.4737806821960433e+00 1.8202204929277475e+01 -4 -1 0
5554 444 2 -8.2999999999999996e-01 8.7774704862543029e-01 8.5516907037914152e+00 2.4296210503945446e+01 -5 3 0
5995 444 2 -8.2999999999999996e-01 4.8605073847833502e+00 1.1590041965929448e+01 2.1666091891043628e+01 -4 0 0
5556 444 1 4.1499999999999998e-01 1.4439821930286867e+00 7.7948787295884019e+00 2.4145062213312823e+01 -5 3 0
5598 444 1 4.1499999999999998e-01 1.6462228195710065e+00 9.2940586610895632e+00 2.1417448030911405e+01 -2 -3 0
5596 444 2 -8.2999999999999996e-01 7.6836973264851571e-01 9.5459204624540064e+00 2.1704103679950897e+01 -2 -3 0
3397 444 2 -8.2999999999999996e-01 1.6772299897830458e+00 9.6112801222165167e+00 1.7783883475430741e+01 -1 0 0
3720 444 1 4.1499999999999998e-01 4.1297990219010083e+00 8.1233341048553527e+00 2.3138227236251513e+01 4 2 0
5304 444 1 4.1499999999999998e-01 5.4973038948874144e+00 8.8699821342439122e+00 1.8448413970608033e+01 -4 -1 0
3719 444 1 4.1499999999999998e-01 5.2672450139277958e+00 7.7222656964226770e+00 2.4053244241529921e+01 4 2 0
3718 444 2 -8.2999999999999996e-01 4.3141777868705029e+00 7.6887895873275216e+00 2.3970938266993993e+01 4 2 0
1595 444 1 4.1499999999999998e-01 3.4433752120875738e-02 1.0072594556081206e+01 1.7263665076938576e+01 3 -2 0
5976 444 1 4.1499999999999998e-01 5.2295367780753832e+00 5.9843463336011027e+00 1.9751162641293860e+01 -1 -1 0
5996 444 1 4.1499999999999998e-01 4.1044751256442842e+00 1.1508714582383940e+01 2.2247497924503438e+01 -4 0 0
166 444 6 2.9999999999999999e-02 9.1719614374578748e-02 1.1568346942106334e+01 2.3688568558722526e+01 2 1 0
4271 444 1 4.1499999999999998e-01 5.5770590510079447e+00 1.1545760427310029e+01 1.6267255694392464e+01 -3 0 0
5555 444 1 4.1499999999999998e-01 5.0694364482705159e-02 8.1761292090714495e+00 2.4598154507501402e+01 -5 3 0
3535 444 2 -8.2999999999999996e-01 2.0170373260930328e+00 6.7897603974542688e+00 2.9344847388050631e+01 2 -1 0
1672 444 2 -8.2999999999999996e-01 2.1677421827717760e+00 6.8111898801857009e+00 3.1910105915697709e+01 2 -4 0
2152 444 2 -8.2999999999999996e-01 4.5158617413211557e+00 8.6798039383210881e+00 2.7476727405760929e+01 4 0 0
2958 444 1 4.1499999999999998e-01 1.8140960025849624e+00 9.4766654066496958e+00 2.5347212034018277e+01 -3 4 0
3537 444 1 4.1499999999999998e-01 2.0382145436172481e+00 6.7596573077689870e+00 3.0301340171321748e+01 2 -1 0
4800 444 1 4.1499999999999998e-01 1.7514943088849488e+00 1.0667808333002668e+01 3.2365093805486850e+01 -2 -1 0
3682 444 2 -8.2999999999999996e-01 5.3051906752502429e+00 7.0450560976544807e+00 2.9372194060205324e+01 5 0 0
2957 444 1 4.1499999999999998e-01 2.4077602306161645e+00 9.8234647040353256e+00 2.6695985225760158e+01 -3 4 0
2154 444 1 4.1499999999999998e-01 5.4158579269002729e+00 8.9590100969536373e+00 2.7308552603899958e+01 4 0 0
3536 444 1 4.1499999999999998e-01 2.1699370580492623e+00 7.7099811340355355e+00 2.9130259565654285e+01 2 -1 0
2956 444 2 -8.2999999999999996e-01 2.5787418893898222e+00 9.8821692349025341e+00 2.5756011208231012e+01 -3 4 0
1673 444 1 4.1499999999999998e-01 2.9627742287835308e+00 7.2930803062459697e+00 3.1682207785681356e+01 2 -4 0
2904 444 1 4.1499999999999998e-01 3.2305281236883872e+00 9.1976254739338135e+00 2.8822701965996348e+01 3 5 0
2902 444 2 -8.2999999999999996e-01 2.3579414683265640e+00 9.5908902006348935e+00 2.8835664763713549e+01 3 5 0
2903 444 1 4.1499999999999998e-01 2.5128636591720657e+00 1.0511838386184303e+01 2.9045631194143834e+01 3 5 0
4798 444 2 -8.2999999999999996e-01 2.5490855210465173e+00 1.1191926626498921e+01 3.2291740406366927e+01 -2 -1 0
3683 444 1 4.1499999999999998e-01 5.1209600416033672e+00 7.5110161098507735e+00 2.8556613152757645e+01 5 0 0
2153 444 1 4.1499999999999998e-01 4.0079034416785841e+00 9.0640161021050627e+00 2.6762170722613266e+01 4 0 0
5705 444 1 4.1499999999999998e-01 3.1604991260105426e+00 1.1233983151902271e+01 2.4743612312491482e+01 5 -1 0
3998 444 1 4.1499999999999998e-01 5.1941228010321385e+00 7.8169891308449877e+00 3.0985680526751569e+01 -1 0 0
3997 444 2 -8.2999999999999996e-01 5.2483632932117050e+00 8.3332429217416646e+00 3.1789902329895838e+01 -1 0 0
4806 444 1 4.1499999999999998e-01 3.6676155757365625e-01 7.3956578103291797e+00 3.0815832014107418e+01 -1 4 0
1312 444 2 -8.2999999999999996e-01 2.5352814333637510e+00 6.0289990092131012e+00 2.4514340407717281e+01 0 0 0
507 444 1 4.1499999999999998e-01 4.2496284019650785e+00 7.3536975208697095e+00 3.4727260984630796e+01 3 0 0
506 444 1 4.1499999999999998e-01 4.7798098960221411e+00 6.3584129086940182e+00 3.3717205830399060e+01 3 0 0
761 444 1 4.1499999999999998e-01 5.6666366662689311e+00 8.5848030841164942e+00 3.6660235039315523e+01 2 -1 0
505 444 2 -8.2999999999999996e-01 3.9665364712205506e+00 6.6927428032722691e+00 3.4095414688035007e+01 3 0 0
1674 444 1 4.1499999999999998e-01 2.3519929179345729e+00 6.4382080276236993e+00 3.2772177883434473e+01 2 -4 0
1723 444 2 -8.2999999999999996e-01 4.6318872545126730e+00 1.0151322891203055e+01 3.3852084788281545e+01 4 -2 0
1725 444 1 4.1499999999999998e-01 4.7333045228717161e+00 9.6110726585067354e+00 3.3068454722705624e+01 4 -2 0
1724 444 1 4.1499999999999998e-01 5.0724117937406161e+00 9.6567937350142081e+00 3.4543178781438989e+01 4 -2 0
4799 444 1 4.1499999999999998e-01 3.0802710722144178e+00 1.0926964752382085e+01 3.3042652953030903e+01 -2 -1 0
6249 444 7 0.0000000000000000e+00 1.6907200000000000e+00 1.1721480000000000e+01 0.0000000000000000e+00 0 0 0
6250 444 7 0.0000000000000000e+00 4.2285000000000004e+00 1.3186669999999999e+01 0.0000000000000000e+00 0 0 0
6251 444 7 -2.0830000000000001e-02 1.6907700000000001e+00 1.1721480000000000e+01 7.1781499999999996e+00 0 0 0
6252 444 7 -2.0830000000000001e-02 4.2285500000000003e+00 1.3186669999999999e+01 7.1781499999999996e+00 0 0 0
6253 444 7 0.0000000000000000e+00 2.5366499999999998e+00 1.3186669999999999e+01 2.3926400000000001e+00 0 0 0
6254 444 7 0.0000000000000000e+00 5.0744199999999999e+00 1.1721480000000000e+01 2.3926400000000001e+00 0 0 0
6255 444 7 0.0000000000000000e+00 8.4509000000000001e-01 1.3186669999999999e+01 4.7824200000000001e+00 0 0 0
6256 444 7 0.0000000000000000e+00 3.3828600000000000e+00 1.1721480000000000e+01 4.7824499999999999e+00 0 0 0
6257 444 7 0.0000000000000000e+00 1.6907200000000000e+00 1.4651850000000000e+01 0.0000000000000000e+00 0 0 0
6259 444 7 -2.0830000000000001e-02 1.6907700000000001e+00 1.4651850000000000e+01 7.1781899999999998e+00 0 0 0
6262 444 7 0.0000000000000000e+00 5.0744199999999999e+00 1.4651850000000000e+01 2.3926400000000001e+00 0 0 0
6264 444 7 0.0000000000000000e+00 3.3828700000000000e+00 1.4651850000000000e+01 4.7824400000000002e+00 0 0 0
6258 444 7 0.0000000000000000e+00 4.2285000000000004e+00 1.6117039999999999e+01 0.0000000000000000e+00 0 0 0
6260 444 7 -2.0830000000000001e-02 4.2285500000000003e+00 1.6117039999999999e+01 7.1781600000000001e+00 0 0 0
6261 444 7 0.0000000000000000e+00 2.5366499999999998e+00 1.6117039999999999e+01 2.3926400000000001e+00 0 0 0
6263 444 7 0.0000000000000000e+00 8.4509000000000001e-01 1.6117039999999999e+01 4.7824499999999999e+00 0 0 0
292 444 2 -8.2999999999999996e-01 1.8399246269063256e+00 1.5430244258199805e+01 1.0264370644678047e+01 0 -5 0
4078 444 2 -8.2999999999999996e-01 2.9423199674079963e+00 1.2857891066111089e+01 1.3787276592394948e+01 0 4 0
1038 444 1 4.1499999999999998e-01 2.4563569108238790e+00 1.4193095466996990e+01 1.4971041953239652e+01 0 0 0
293 444 1 4.1499999999999998e-01 2.7954485562541467e+00 1.5445272799304385e+01 1.0318961151080590e+01 0 -5 0
294 444 1 4.1499999999999998e-01 1.5725608082346032e+00 1.6320973823612068e+01 1.0490974451771002e+01 0 -5 0
1037 444 1 4.1499999999999998e-01 1.1920154350042209e+00 1.4973050021270529e+01 1.5262601376669769e+01 0 0 0
1036 444 2 -8.2999999999999996e-01 2.1407960282837388e+00 1.4995191212105066e+01 1.5387329890145214e+01 0 0 0
3148 444 2 -8.2999999999999996e-01 1.0302999301298355e+00 1.3043846673457663e+01 1.0182252131364022e+01 8 2 0
3050 444 1 4.1499999999999998e-01 6.1501710208768951e-03 1.6685527463483485e+01 1.2597202726685669e+01 -2 -1 0
3149 444 1 4.1499999999999998e-01 1.2126909566189343e+00 1.3983055165259813e+01 1.0211457306902796e+01 8 2 0
3854 444 1 4.1499999999999998e-01 4.3201545420677521e+00 1.2244556898676825e+01 1.0155389732128000e+01 1 -5 0
3150 444 1 4.1499999999999998e-01 1.8938371623565415e+00 1.2632801266582630e+01 1.0142540366441077e+01 8 2 0
4744 444 2 -8.2999999999999996e-01 4.3420849936157033e+00 1.5550894699015604e+01 1.1003918897116758e+01 3 2 0
4079 444 1 4.1499999999999998e-01 3.7479665674426181e+00 1.2815513950744412e+01 1.3272136165548623e+01 0 4 0
5840 444 1 4.1499999999999998e-01 5.1518278492859038e+00 1.4107425351183940e+01 1.0129416987271595e+01 -5 2 0
4745 444 1 4.1499999999999998e-01 4.9240852043766079e+00 1.6276886705218125e+01 1.0779323037363866e+01 3 2 0
2494 444 2 -8.2999999999999996e-01 4.3903535340761204e+00 1.5556270422088673e+01 1.3696481011872685e+01 1 -2 0
4080 444 1 4.1499999999999998e-01 2.6857559272942679e+00 1.1943543223376128e+01 1.3907172491875240e+01 0 4 0
3853 444 2 -8.2999999999999996e-01 3.4569126346396537e+00 1.1837859337304511e+01 1.0080273936686694e+01 1 -5 0
5839 444 2 -8.2999999999999996e-01 5.6781347993729216e+00 1.3312125392160095e+01 1.0047369870600518e+01 -5 2 0
2345 444 1 4.1499999999999998e-01 5.5593484624353442e+00 1.5139474882716582e+01 1.4689370393617128e+01 4 5 0
4746 444 1 4.1499999999999998e-01 4.4588806437396658e+00 1.5432466025230097e+01 1.1946556359350394e+01 3 2 0
2574 444 1 4.1499999999999998e-01 1.9688375186051299e+00 1.7461424526248663e+01 1.5427667228064578e+01 -2 1 0
2496 444 1 4.1499999999999998e-01 4.3451437191936346e+00 1.6452401247191474e+01 1.4029854264691474e+01 1 -2 0
3049 444 2 -8.2999999999999996e-01 5.2135122016757718e-01 1.7272335074864124e+01 1.2043617527636675e+01 -2 -1 0
2495 444 1 4.1499999999999998e-01 3.4792849602226972e+00 1.5317515679158442e+01 1.3525653250676969e+01 1 -2 0
3051 444 1 4.1499999999999998e-01 8.0086097089406394e-02 1.7250162546644415e+01 1.1194485383581304e+01 -2 -1 0
5532 444 1 4.1499999999999998e-01 4.9102954070268359e+00 1.7557781430636339e+01 9.3507702563942043e+00 -3 3 0
5997 444 1 4.1499999999999998e-01 4.8252243332014784e+00 1.2493367566474964e+01 2.1351465388095228e+01 -4 0 0
988 444 2 -8.2999999999999996e-01 2.2138904944156437e+00 1.7131523267413424e+01 2.2826915841349539e+01 2 2 0
240 444 1 4.1499999999999998e-01 3.6094508128978053e+00 1.4397620454741062e+01 1.8170118477922731e+01 -1 1 0
239 444 1 4.1499999999999998e-01 2.4870420779673257e+00 1.4954805767017637e+01 1.7320625285433092e+01 -1 1 0
350 444 1 4.1499999999999998e-01 5.6374146866525781e+00 1.3869082220023131e+01 2.0447891796649515e+01 0 -4 0
5704 444 2 -8.2999999999999996e-01 3.2333716298379791e+00 1.1873505530124428e+01 2.4035139412649087e+01 5 -1 0
238 444 2 -8.2999999999999996e-01 2.7513910484394883e+00 1.4817553206337100e+01 1.8230303244518471e+01 -1 1 0
2805 444 1 4.1499999999999998e-01 1.6116493314913998e+00 1.3782803615413810e+01 1.9153404675288524e+01 -1 -3 0
349 444 2 -8.2999999999999996e-01 4.6803649099391933e+00 1.3883897784388875e+01 2.0456222165692889e+01 0 -4 0
5988 444 1 4.1499999999999998e-01 7.9917911889081827e-01 1.6339044670028887e+01 1.9867863248551032e+01 1 -4 0
1262 444 1 4.1499999999999998e-01 3.6829382685521046e+00 1.7089267624517667e+01 2.3835513079145290e+01 0 -2 0
5986 444 2 -8.2999999999999996e-01 8.7553235028149767e-01 1.7008569383215132e+01 2.0547671128496177e+01 1 -4 0
2974 444 2 -8.2999999999999996e-01 3.9758427543221959e+00 1.6648428369814528e+01 2.0874145616639165e+01 -3 2 0
2976 444 1 4.1499999999999998e-01 3.3471394577099227e+00 1.6349048901635332e+01 2.0217383882944453e+01 -3 2 0
2804 444 1 4.1499999999999998e-01 1.2777120209879558e+00 1.2311315015871340e+01 1.9030512640142671e+01 -1 -3 0
351 444 1 4.1499999999999998e-01 4.4550739349465189e+00 1.4813363507160195e+01 2.0495840867305589e+01 0 -4 0
160 444 6 2.9999999999999999e-02 4.0963115421174962e-01 1.4922272341601657e+01 2.2625391264916594e+01 2 1 0
3298 444 2 -8.2999999999999996e-01 5.1190128813001587e+00 1.5609218865127746e+01 1.7600639059594435e+01 -5 3 0
3299 444 1 4.1499999999999998e-01 4.3992142102357024e+00 1.6149157037015438e+01 1.7274159722993058e+01 -5 3 0
2975 444 1 4.1499999999999998e-01 3.4433856303544705e+00 1.6840621573439009e+01 2.1646015469780917e+01 -3 2 0