LAMMPS data file via write_data, version 11 Aug 2017, timestep = 5000000

7368 atoms
7 atom types
4240 bonds
5 bond types
2390 angles
3 angle types
450 dihedrals
2 dihedral types

0.0000000000000000e+00 4.5679949999999998e+01 xlo xhi
0.0000000000000000e+00 4.6885919999999999e+01 ylo yhi
0.0000000000000000e+00 6.5000000000000000e+01 zlo zhi

Masses

1 1.0079
2 15.9994
3 22.9898
4 15.9994
5 12.011
6 1.0079
7 107.868

Angle Coeffs # harmonic

1 50 109.471
2 50 104.51
3 55 104.52

Dihedral Coeffs # charmm

1 0.111111 3 0 0
2 0.333333 3 0 0

Atoms # full

6217 444 7 0.0000000000000000e+00 1.6907200000000000e+00 0.0000000000000000e+00 0.0000000000000000e+00 0 0 0
6218 444 7 0.0000000000000000e+00 4.2285000000000004e+00 1.4651900000000000e+00 0.0000000000000000e+00 0 0 0
6219 444 7 -2.0830000000000001e-02 1.6907700000000001e+00 0.0000000000000000e+00 7.1781499999999996e+00 0 0 0
6220 444 7 -2.0830000000000001e-02 4.2285500000000003e+00 1.4651900000000000e+00 7.1781499999999996e+00 0 0 0
6221 444 7 0.0000000000000000e+00 2.5366499999999998e+00 1.4651900000000000e+00 2.3926400000000001e+00 0 0 0
6222 444 7 0.0000000000000000e+00 5.0744199999999999e+00 0.0000000000000000e+00 2.3926400000000001e+00 0 0 0
6223 444 7 0.0000000000000000e+00 8.4509000000000001e-01 1.4651900000000000e+00 4.7824200000000001e+00 0 0 0
6224 444 7 0.0000000000000000e+00 3.3828600000000000e+00 0.0000000000000000e+00 4.7824499999999999e+00 0 0 0
6225 444 7 0.0000000000000000e+00 1.6907200000000000e+00 2.9303699999999999e+00 0.0000000000000000e+00 0 0 0
6226 444 7 0.0000000000000000e+00 4.2285000000000004e+00 4.3955599999999997e+00 0.0000000000000000e+00 0 0 0
6227 444 7 -2.0830000000000001e-02 1.6907700000000001e+00 2.9303699999999999e+00 7.1781899999999998e+00 0 0 0
6228 444 7 -2.0830000000000001e-02 4.2285500000000003e+00 4.3955599999999997e+00 7.1781600000000001e+00 0 0 0
6229 444 7 0.0000000000000000e+00 2.5366499999999998e+00 4.3955599999999997e+00 2.3926400000000001e+00 0 0 0
6230 444 7 0.0000000000000000e+00 5.0744199999999999e+00 2.9303699999999999e+00 2.3926400000000001e+00 0 0 0
6231 444 7 0.0000000000000000e+00 8.4509000000000001e-01 4.3955599999999997e+00 4.7824499999999999e+00 0 0 0
6232 444 7 0.0000000000000000e+00 3.3828700000000000e+00 2.9303699999999999e+00 4.7824400000000002e+00 0 0 0
6233 444 7 0.0000000000000000e+00 1.6907200000000000e+00 5.8607399999999998e+00 0.0000000000000000e+00 0 0 0
6234 444 7 0.0000000000000000e+00 4.2285000000000004e+00 7.3259299999999996e+00 0.0000000000000000e+00 0 0 0
6235 444 7 -2.0830000000000001e-02 1.6907700000000001e+00 5.8607399999999998e+00 7.1781499999999996e+00 0 0 0
6236 444 7 -2.0830000000000001e-02 4.2285500000000003e+00 7.3259299999999996e+00 7.1781499999999996e+00 0 0 0
6237 444 7 0.0000000000000000e+00 2.5366499999999998e+00 7.3259299999999996e+00 2.3926400000000001e+00 0 0 0
6238 444 7 0.0000000000000000e+00 5.0744199999999999e+00 5.8607399999999998e+00 2.3926400000000001e+00 0 0 0
6239 444 7 0.0000000000000000e+00 8.4509000000000001e-01 7.3259299999999996e+00 4.7824200000000001e+00 0 0 0
6240 444 7 0.0000000000000000e+00 3.3828600000000000e+00 5.8607399999999998e+00 4.7824499999999999e+00 0 0 0
6345 444 7 0.0000000000000000e+00 6.7662699999999996e+00 0.0000000000000000e+00 0.0000000000000000e+00 0 0 0
6346 444 7 0.0000000000000000e+00 9.3040500000000002e+00 1.4651900000000000e+00 0.0000000000000000e+00 0 0 0
6347 444 7 -2.0830000000000001e-02 6.7663200000000003e+00 0.0000000000000000e+00 7.1781499999999996e+00 0 0 0
6348 444 7 -2.0830000000000001e-02 9.3041000000000000e+00 1.4651900000000000e+00 7.1781499999999996e+00 0 0 0
6349 444 7 0.0000000000000000e+00 7.6121999999999996e+00 1.4651900000000000e+00 2.3926400000000001e+00 0 0 0
6350 444 7 0.0000000000000000e+00 1.0149970000000000e+01 0.0000000000000000e+00 2.3926400000000001e+00 0 0 0
6351 444 7 0.0000000000000000e+00 5.9206399999999997e+00 1.4651900000000000e+00 4.7824200000000001e+00 0 0 0
6352 444 7 0.0000000000000000e+00 8.4584100000000007e+00 0.0000000000000000e+00 4.7824499999999999e+00 0 0 0
6353 444 7 0.0000000000000000e+00 6.7662699999999996e+00 2.9303699999999999e+00 0.0000000000000000e+00 0 0 0
6354 444 7 0.0000000000000000e+00 9.3040500000000002e+00 4.3955599999999997e+00 0.0000000000000000e+00 0 0 0
6355 444 7 -2.0830000000000001e-02 6.7663200000000003e+00 2.9303699999999999e+00 7.1781899999999998e+00 0 0 0
6356 444 7 -2.0830000000000001e-02 9.3041000000000000e+00 4.3955599999999997e+00 7.1781600000000001e+00 0 0 0
6357 444 7 0.0000000000000000e+00 7.6121999999999996e+00 4.3955599999999997e+00 2.3926400000000001e+00 0 0 0
6358 444 7 0.0000000000000000e+00 1.0149970000000000e+01 2.9303699999999999e+00 2.3926400000000001e+00 0 0 0
6359 444 7 0.0000000000000000e+00 5.9206399999999997e+00 4.3955599999999997e+00 4.7824499999999999e+00 0 0 0
6360 444 7 0.0000000000000000e+00 8.4584200000000003e+00 2.9303699999999999e+00 4.7824400000000002e+00 0 0 0
6479 444 7 0.0000000000000000e+00 1.0996190000000000e+01 1.4651900000000000e+00 4.7824200000000001e+00 0 0 0
6487 444 7 0.0000000000000000e+00 1.0996190000000000e+01 4.3955599999999997e+00 4.7824499999999999e+00 0 0 0
6361 444 7 0.0000000000000000e+00 6.7662699999999996e+00 5.8607399999999998e+00 0.0000000000000000e+00 0 0 0
6362 444 7 0.0000000000000000e+00 9.3040500000000002e+00 7.3259299999999996e+00 0.0000000000000000e+00 0 0 0
6363 444 7 -2.0830000000000001e-02 6.7663200000000003e+00 5.8607399999999998e+00 7.1781499999999996e+00 0 0 0
6364 444 7 -2.0830000000000001e-02 9.3041000000000000e+00 7.3259299999999996e+00 7.1781499999999996e+00 0 0 0
6365 444 7 0.0000000000000000e+00 7.6121999999999996e+00 7.3259299999999996e+00 2.3926400000000001e+00 0 0 0
6366 444 7 0.0000000000000000e+00 1.0149970000000000e+01 5.8607399999999998e+00 2.3926400000000001e+00 0 0 0
6367 444 7 0.0000000000000000e+00 5.9206399999999997e+00 7.3259299999999996e+00 4.7824200000000001e+00 0 0 0
6368 444 7 0.0000000000000000e+00 8.4584100000000007e+00 5.8607399999999998e+00 4.7824499999999999e+00 0 0 0
6495 444 7 0.0000000000000000e+00 1.0996190000000000e+01 7.3259299999999996e+00 4.7824200000000001e+00 0 0 0
3010 444 2 -8.2999999999999996e-01 3.3256145507136505e+00 5.6356180779245699e+00 1.5232612260819739e+01 3 2 0
4253 444 1 4.1499999999999998e-01 7.9096984717904082e+00 1.3430421470942200e+00 1.2873949134942356e+01 0 -2 0
4252 444 2 -8.2999999999999996e-01 7.4084330537366307e+00 1.3372896196276089e+00 1.3689382936597315e+01 0 -2 0
345 444 1 4.1499999999999998e-01 4.3580801384564944e+00 6.3862027776671590e+00 1.2043081680963532e+01 -1 -1 0
4254 444 1 4.1499999999999998e-01 8.0661480241080756e+00 1.2182517898565828e+00 1.4374564450860396e+01 0 -2 0
344 444 1 4.1499999999999998e-01 3.8699309847223238e+00 5.5213672070471462e+00 1.3185738631542771e+01 -1 -1 0
1791 444 1 4.1499999999999998e-01 6.2927791059619036e+00 2.6799779032313849e+00 1.4404033383519783e+01 -5 6 0
343 444 2 -8.2999999999999996e-01 4.2890166856373240e+00 5.4745153101140884e+00 1.2326434127546474e+01 -1 -1 0
1789 444 2 -8.2999999999999996e-01 6.2892222216285942e+00 3.4964411850192030e+00 1.4903641121117813e+01 -5 6 0
1790 444 1 4.1499999999999998e-01 6.6582525541927362e+00 4.1457560183003173e+00 1.4304943283158732e+01 -5 6 0
6051 444 1 4.1499999999999998e-01 5.8080224973980190e+00 4.7765160815142993e+00 1.2012611728948109e+01 1 1 0
6049 444 2 -8.2999999999999996e-01 6.6347097119493501e+00 4.3486746294090324e+00 1.1789512689523592e+01 1 1 0
6050 444 1 4.1499999999999998e-01 7.3055625366321904e+00 4.9981369918694609e+00 1.2000197496370600e+01 1 1 0
3643 444 2 -8.2999999999999996e-01 6.0525322322608643e-01 6.0649242320831434e+00 1.1481169578054180e+01 2 3 0
3645 444 1 4.1499999999999998e-01 9.3906108553416490e-01 5.6920955337836414e+00 1.2297137043734141e+01 2 3 0
321 444 1 4.1499999999999998e-01 6.8588740090955209e+00 1.3943295363158019e+00 1.1010703213987854e+01 -2 3 0
3431 444 1 4.1499999999999998e-01 4.3597077153644346e+00 2.0534007877776412e+00 1.1101110864263136e+01 1 1 0
319 444 2 -8.2999999999999996e-01 5.9927604131915029e+00 1.7969623078112822e+00 1.1073678744277998e+01 -2 3 0
320 444 1 4.1499999999999998e-01 6.1669884662377541e+00 2.7016973193805467e+00 1.1333160935749296e+01 -2 3 0
1739 444 1 4.1499999999999998e-01 1.0536106429914052e+00 2.4107250834964695e+00 1.5057654885715637e+01 1 -5 0
3257 444 1 4.1499999999999998e-01 5.2305753698160773e+00 3.3112917823277010e-01 1.0966185554038629e+01 6 2 0
558 444 1 4.1499999999999998e-01 9.6329881583559196e+00 5.1740324620817262e+00 9.6314890626120366e+00 3 0 0
3644 444 1 4.1499999999999998e-01 5.5481968921848723e-01 5.3213442144555545e+00 1.0880522371103412e+01 2 3 0
3209 444 1 4.1499999999999998e-01 2.3507938590380020e+00 1.3103403925834478e+00 1.1986847714124199e+01 1 -1 0
3432 444 1 4.1499999999999998e-01 3.5653010470587980e+00 3.3308402280680740e+00 1.1271291655055483e+01 1 1 0
3430 444 2 -8.2999999999999996e-01 3.4818755331149558e+00 2.4191014428874027e+00 1.0991999048717167e+01 1 1 0
4695 444 1 4.1499999999999998e-01 6.2092350368465015e+00 3.7676063507072527e-01 1.4266272723277654e+01 -4 0 0
4125 444 1 4.1499999999999998e-01 1.5603146639361551e+00 5.2447950125449765e+00 1.4623047063984918e+01 -2 5 0
555 444 1 4.1499999999999998e-01 1.2318204755319180e+00 3.1328499279039290e+00 1.0038315698457428e+01 6 4 0
1740 444 1 4.1499999999999998e-01 5.0989014788155873e-01 3.3647500912959170e+00 1.4015493975970209e+01 1 -5 0
4124 444 1 4.1499999999999998e-01 2.7455569381374562e-01 6.0091340030949274e+00 1.4389583314326352e+01 -2 5 0
4123 444 2 -8.2999999999999996e-01 7.0927639851328972e-01 5.1800974143148073e+00 1.4189710130552889e+01 -2 5 0
5467 444 2 -8.2999999999999996e-01 1.0964163910597955e+01 1.7952101857996370e+00 1.3822524202925614e+01 0 1 0
3208 444 2 -8.2999999999999996e-01 1.6403754030950206e+00 8.0116353944623575e-01 1.2377073792005939e+01 1 -1 0
4005 444 1 4.1499999999999998e-01 9.9491988414188715e+00 1.0290418381935345e+00 1.4867215064817312e+01 -2 2 0
3210 444 1 4.1499999999999998e-01 1.3512916121147285e+00 1.3256298587907129e+00 1.3123798293250381e+01 1 -1 0
1738 444 2 -8.2999999999999996e-01 6.7719901744406485e-01 2.4363919534546321e+00 1.4177946293474404e+01 1 -5 0
675 444 1 4.1499999999999998e-01 9.1898849216701759e+00 6.5157807520307616e+00 1.3255033004552544e+01 3 -1 0
673 444 2 -8.2999999999999996e-01 8.6647747002156663e+00 5.9974849541652855e+00 1.2645229219001862e+01 3 -1 0
674 444 1 4.1499999999999998e-01 9.2957733687505399e+00 5.6677286466814936e+00 1.2005436685084430e+01 3 -1 0
3297 444 1 4.1499999999999998e-01 9.3115024127387205e+00 1.1248246765433849e+00 1.0857203912400966e+01 0 2 0
5468 444 1 4.1499999999999998e-01 1.0972169471311823e+01 1.8280060877015103e+00 1.2865919228993075e+01 0 1 0
3011 444 1 4.1499999999999998e-01 3.8993481161999415e+00 4.9636160767858559e+00 1.5600682594891937e+01 3 2 0
3012 444 1 4.1499999999999998e-01 3.2141501646783417e+00 6.2700787136132830e+00 1.5940615116358147e+01 3 2 0
4767 444 1 4.1499999999999998e-01 5.4100222941126308e+00 3.7996440366283997e+00 1.6072919351712859e+01 -1 2 0
3264 444 1 4.1499999999999998e-01 3.9037732566707919e+00 2.1623033890670849e+00 1.6051704059204731e+01 -4 2 0
3262 444 2 -8.2999999999999996e-01 3.6225195603386440e+00 1.2531881932295159e+00 1.5948565789271154e+01 -4 2 0
3263 444 1 4.1499999999999998e-01 4.3521728207569188e+00 8.2564252600420240e-01 1.5500188259314282e+01 -4 2 0
3295 444 2 -8.2999999999999996e-01 8.5618997235725658e+00 5.5970545814614447e-01 1.1044202270947544e+01 0 2 0
4003 444 2 -8.2999999999999996e-01 9.3903829737835611e+00 8.6239744470646562e-01 1.5626284432174900e+01 -2 2 0
1509 444 1 4.1499999999999998e-01 6.5105382951599067e-01 7.7194940911723338e+00 1.0923957020368210e+01 4 1 0
553 444 2 -8.2999999999999996e-01 5.6122575329855262e-01 3.5911845560242810e+00 1.0544738434466607e+01 6 4 0
488 444 1 4.1499999999999998e-01 1.1216123111278234e+01 3.8450227030816939e+00 1.4698751398155347e+01 5 -2 0
487 444 2 -8.2999999999999996e-01 1.0855152425955808e+01 4.5443091404613769e+00 1.4153837847060515e+01 5 -2 0
1268 444 1 4.1499999999999998e-01 1.1264742184804533e+01 6.6924180322410560e+00 1.0436533374372532e+01 5 3 0
557 444 1 4.1499999999999998e-01 1.0876931507680920e+01 4.9252814811992325e+00 1.0457699545595275e+01 3 0 0
556 444 2 -8.2999999999999996e-01 1.0058281042525330e+01 5.4212843885373356e+00 1.0452600738758520e+01 3 0 0
5824 444 2 -8.2999999999999996e-01 1.1249486060206156e+01 1.7049486044358353e+00 1.1113716580981528e+01 -4 4 0
489 444 1 4.1499999999999998e-01 9.9682098227276654e+00 4.2516608405733844e+00 1.3944262844302836e+01 5 -2 0
2588 444 1 4.1499999999999998e-01 3.5011323282673854e+00 7.7168747596293219e+00 9.9257235308937393e+00 4 2 0
1454 444 1 4.1499999999999998e-01 4.0283159325035456e-02 5.9660516537143327e+00 1.8755422044131585e+01 3 -1 0
2213 444 1 4.1499999999999998e-01 1.9903039272827497e-01 7.0733230921549790e+00 2.3088339571342701e+01 1 3 0
1805 444 1 4.1499999999999998e-01 1.0823640424869147e+01 3.6748673901771722e+00 1.7575848892286846e+01 2 1 0
3718 444 2 -8.2999999999999996e-01 9.5562067615221069e-01 1.7524653300171313e+00 1.6560564534512469e+01 7 2 0
4765 444 2 -8.2999999999999996e-01 4.8310043087865653e+00 3.8101357432520171e+00 1.6835061101884051e+01 -1 2 0
3719 444 1 4.1499999999999998e-01 1.8996704143442276e+00 1.5970489140002231e+00 1.6531439553722354e+01 7 2 0
3175 444 2 -8.2999999999999996e-01 4.7440544096377080e+00 6.5050564101044028e-01 1.9618393120149843e+01 2 -2 0
2599 444 2 -8.2999999999999996e-01 8.9265194556820882e-01 7.5662690217670434e+00 2.1677373877111759e+01 -7 -1 0
1804 444 2 -8.2999999999999996e-01 1.1261841873330985e+01 4.5251695131604937e+00 1.7610468396204180e+01 2 1 0
6129 444 1 4.1499999999999998e-01 7.8355332505799051e+00 5.3792850847160378e-01 2.0176503047315670e+01 1 1 0
3784 444 2 -8.2999999999999996e-01 9.5682320124467832e+00 2.3736531174865703e+00 1.7861305160958892e+01 5 4 0
1770 444 1 4.1499999999999998e-01 1.0561921185895788e+00 2.4864154660033995e+00 2.1061905896963367e+01 3 3 0
1270 444 2 -8.2999999999999996e-01 6.6378051934503208e+00 7.2152294400558121e+00 2.2436643112748477e+01 -2 0 0
6189 444 1 4.1499999999999998e-01 2.7176222424700129e+00 3.8606596544183640e+00 1.9157218122974662e+01 -2 4 0
6187 444 2 -8.2999999999999996e-01 2.7556186956863611e+00 3.0339190396778775e+00 1.8676293281448203e+01 -2 4 0
3293 444 1 4.1499999999999998e-01 6.4969951131869523e+00 5.9473363985338574e+00 1.9380224783042074e+01 3 -4 0
4766 444 1 4.1499999999999998e-01 5.4212865831152532e+00 3.8953825853138588e+00 1.7583747728555881e+01 -1 2 0
4702 444 2 -8.2999999999999996e-01 9.4093807298103140e+00 6.8438599764673853e+00 1.8635588384260050e+01 1 -3 0
4703 444 1 4.1499999999999998e-01 9.8986112956577337e+00 7.3408109567537814e+00 1.9291275230563201e+01 1 -3 0
4819 444 2 -8.2999999999999996e-01 6.2179851993717774e+00 3.8917849160384286e+00 1.9274280466861221e+01 2 4 0
3785 444 1 4.1499999999999998e-01 9.5678920541287127e+00 1.8157720620760860e+00 1.7083487435377702e+01 5 4 0
2179 444 2 -8.2999999999999996e-01 4.4554284035821592e+00 2.3174680198030928e-01 2.2382320152943173e+01 -5 -3 0
1271 444 1 4.1499999999999998e-01 6.9625265813736155e+00 6.3163058210195180e+00 2.2384449201691215e+01 -2 0 0
6188 444 1 4.1499999999999998e-01 3.3351299447718148e+00 3.2133943268971752e+00 1.7935896263619004e+01 -2 4 0
4820 444 1 4.1499999999999998e-01 6.9700003652002804e+00 3.3871172010164954e+00 1.9584144313276983e+01 2 4 0
5514 444 1 4.1499999999999998e-01 6.0633561735916102e+00 2.8034457237534025e+00 2.3571219735663718e+01 -2 5 0
5512 444 2 -8.2999999999999996e-01 5.4118365509443676e+00 2.9787623925098279e+00 2.2892236464767574e+01 -2 5 0
6128 444 1 4.1499999999999998e-01 6.6714038949970567e+00 7.6570973493352990e-01 1.9235857204972412e+01 1 1 0
4280 444 1 4.1499999999999998e-01 6.8504765309540305e+00 4.1804484710384759e+00 2.2149601389985911e+01 0 0 0
769 444 2 -8.2999999999999996e-01 3.6820377976468373e+00 5.3503964103773809e+00 2.0447679917905024e+01 -1 4 0
4279 444 2 -8.2999999999999996e-01 7.6750401670908097e+00 4.6665522269345310e+00 2.2155110072718589e+01 0 0 0
409 444 2 -8.2999999999999996e-01 9.6171920230912811e+00 3.4583508751201633e+00 2.0549320834880234e+01 0 3 0
411 444 1 4.1499999999999998e-01 9.4328300450639002e+00 2.7302015428291382e+00 1.9955990405903716e+01 0 3 0
5513 444 1 4.1499999999999998e-01 4.7483385149172426e+00 2.2998950433805554e+00 2.3015287764530399e+01 -2 5 0
410 444 1 4.1499999999999998e-01 1.0571735920542711e+01 3.5295371575861827e+00 2.0552522844735599e+01 0 3 0
770 444 1 4.1499999999999998e-01 4.1608502540348944e+00 6.0528816863316361e+00 2.0007810573860883e+01 -1 4 0
4281 444 1 4.1499999999999998e-01 8.3523142480248396e+00 3.9905384769323895e+00 2.2131921233788198e+01 0 0 0
4821 444 1 4.1499999999999998e-01 5.4881385153232269e+00 3.5922249430440534e+00 1.9816331720880836e+01 2 4 0
4704 444 1 4.1499999999999998e-01 9.8474853359283880e+00 5.9934316843949853e+00 1.8602907112217984e+01 1 -3 0
4558 444 2 -8.2999999999999996e-01 3.2195336057122512e+00 7.2150472328842463e+00 2.2584629832619488e+01 -2 -2 0
771 444 1 4.1499999999999998e-01 3.5724751484188477e+00 5.6608631191290000e+00 2.1346478321733851e+01 -1 4 0
3786 444 1 4.1499999999999998e-01 8.7673734154393337e+00 2.1350448625605685e+00 1.8328127897553859e+01 5 4 0
458 444 1 4.1499999999999998e-01 1.7086771764027722e+00 6.6952896224251006e+00 1.7424617255576642e+01 2 1 0
1768 444 2 -8.2999999999999996e-01 1.7748525615399797e+00 1.8734186552974372e+00 2.0907006133697720e+01 3 3 0
2463 444 1 4.1499999999999998e-01 3.0782583384201816e+00 3.8496350488621007e+00 2.3244391505452693e+01 2 1 0
4740 444 1 4.1499999999999998e-01 8.8753647205638284e+00 5.8480388052332408e+00 2.2008048892314630e+01 4 2 0
1272 444 1 4.1499999999999998e-01 6.4753984025715452e+00 7.4649260789750693e+00 2.1526968719463330e+01 -2 0 0
4738 444 2 -8.2999999999999996e-01 9.6179865460825074e+00 6.4518137605852282e+00 2.1993891508053636e+01 4 2 0
4560 444 1 4.1499999999999998e-01 3.3252792078955009e+00 7.2053258759299315e+00 2.3535920919781024e+01 -2 -2 0
6127 444 2 -8.2999999999999996e-01 7.5449649488602297e+00 1.0919099552911866e+00 1.9451997814343510e+01 1 1 0
3294 444 1 4.1499999999999998e-01 7.5553308463496904e+00 7.0273373125187675e+00 1.9453837103057364e+01 3 -4 0
1769 444 1 4.1499999999999998e-01 2.2420498834216129e+00 2.2365319095585168e+00 2.0154605132052843e+01 3 3 0
3720 444 1 4.1499999999999998e-01 5.7789338414123737e-01 8.9745252358414840e-01 1.6766740205791645e+01 7 2 0
4739 444 1 4.1499999999999998e-01 1.0301842474977672e+01 6.0028138954485035e+00 2.2490854305828137e+01 4 2 0
2181 444 1 4.1499999999999998e-01 3.8674575485785878e+00 7.0859903638097421e-01 2.1796543471799588e+01 -5 -3 0
1303 444 2 -8.2999999999999996e-01 1.0083381410547295e+01 3.6289531527867053e-01 2.3806203788649725e+01 4 -1 0
3177 444 1 4.1499999999999998e-01 4.1740384480320198e+00 1.3651622687565337e+00 1.9334527837296591e+01 2 -2 0
4983 444 1 4.1499999999999998e-01 8.1582632413457468e-01 2.2671923838906802e+00 2.3904447988416042e+01 7 -5 0
4981 444 2 -8.2999999999999996e-01 2.2475868627904663e-01 1.5554995324628866e+00 2.4150140362979482e+01 7 -5 0
1304 444 1 4.1499999999999998e-01 9.5098575510069079e+00 1.0454673740518186e+00 2.4154625368556406e+01 4 -1 0
1453 444 2 -8.2999999999999996e-01 2.4030621080751205e-01 5.9009902587340441e+00 1.7821618292187313e+01 3 -1 0
3173 444 1 4.1499999999999998e-01 6.7232235693982654e+00 6.8464295136250417e+00 2.4104746441994241e+01 -1 2 0
457 444 2 -8.2999999999999996e-01 2.4963997898205514e+00 7.2384278190777795e+00 1.7451558631227766e+01 2 1 0
2461 444 2 -8.2999999999999996e-01 2.3654675913397480e+00 3.5504246699880651e+00 2.3808868445631841e+01 2 1 0
1346 444 1 4.1499999999999998e-01 1.1214200734473426e+01 1.0065717001589811e+00 1.8335482655664034e+01 1 -2 0
3292 444 2 -8.2999999999999996e-01 6.6942018101226184e+00 6.7868312255160781e+00 1.9795664909635068e+01 3 -4 0
2601 444 1 4.1499999999999998e-01 1.6960228229778016e+00 7.4572761733217954e+00 2.2186242751483245e+01 -7 -1 0
4716 444 1 4.1499999999999998e-01 4.9147131654659830e+00 1.2402043874791115e-01 2.4056679975012507e+01 7 2 0
5448 444 1 4.1499999999999998e-01 9.3416550288867928e+00 2.3001087340135673e-01 2.1980736440502252e+01 8 -1 0
1070 444 1 4.1499999999999998e-01 9.6730111139118424e+00 7.7588227694804823e+00 2.0925015117916239e+01 -2 3 0
459 444 1 4.1499999999999998e-01 2.3689415031350642e+00 7.8086150488653177e+00 1.8209762263160140e+01 2 1 0
1374 444 1 4.1499999999999998e-01 5.8263361320184464e+00 1.2903148645602591e-01 3.1045518693172145e+01 1 4 0
3196 444 2 -8.2999999999999996e-01 6.8121306611466155e+00 2.7945656338340039e+00 3.0118602708764239e+01 6 1 0
4982 444 1 4.1499999999999998e-01 7.7315982479142475e-01 9.4912237647462350e-01 2.4647930539375285e+01 7 -5 0
3055 444 2 -8.2999999999999996e-01 2.1377939525156639e-02 7.2703635495830952e+00 3.0357098448648248e+01 0 5 0
2214 444 1 4.1499999999999998e-01 4.9900125200348769e-02 7.1200098545357244e+00 2.4594153334813100e+01 1 3 0
2462 444 1 4.1499999999999998e-01 2.8021682605522762e+00 3.2351699741429032e+00 2.4600157704652343e+01 2 1 0
4223 444 1 4.1499999999999998e-01 7.8912970575477495e+00 2.8557684580990021e+00 2.5013964662365417e+01 2 2 0
3414 444 1 4.1499999999999998e-01 1.8741705350500368e-01 7.2386637522847757e+00 3.2115762987900531e+01 -1 10 0
2678 444 1 4.1499999999999998e-01 4.6569231295950413e+00 1.8685664344981514e+00 2.5562516847685917e+01 2 -4 0
2729 444 1 4.1499999999999998e-01 1.1324211498863729e+01 5.6923516441170054e+00 2.6566342962384024e+01 4 -3 0
4222 444 2 -8.2999999999999996e-01 8.7066906030077931e+00 2.3767481541509659e+00 2.4865959403899222e+01 2 2 0
640 444 2 -8.2999999999999996e-01 6.5766819025705665e+00 5.9403590277329679e+00 3.1411048682060915e+01 6 2 0
641 444 1 4.1499999999999998e-01 7.5114869636367212e+00 5.9077288173874969e+00 3.1614289030734046e+01 6 2 0
3085 444 2 -8.2999999999999996e-01 6.9022172450421970e-01 4.6648885269809597e+00 2.9055464404981635e+01 1 -5 0
3110 444 1 4.1499999999999998e-01 7.3271818177553198e+00 5.5873123821643156e-01 2.6960414464670276e+01 -5 -1 0
3204 444 1 4.1499999999999998e-01 3.5004796203679609e+00 6.8365909133419098e+00 2.5809759058218525e+01 1 1 0
3197 444 1 4.1499999999999998e-01 6.9752242202419499e+00 2.4668291810878546e+00 2.9234170095137710e+01 6 1 0
2730 444 1 4.1499999999999998e-01 1.0175644319637689e+01 5.5901379097406583e+00 2.7547281743365140e+01 4 -3 0
4714 444 2 -8.2999999999999996e-01 5.1491600363182624e+00 3.6340238022984656e-01 2.4953320520171893e+01 7 2 0
3057 444 1 4.1499999999999998e-01 3.9317149956797975e-01 6.4163163477316862e+00 3.0136632441622563e+01 0 5 0
2272 444 2 -8.2999999999999996e-01 1.8103568513611340e-01 6.2998433196578887e+00 2.7050192229641262e+01 1 2 0
1373 444 1 4.1499999999999998e-01 4.4237965577391787e+00 2.2123834805142226e-01 3.0483134694345900e+01 1 4 0
3087 444 1 4.1499999999999998e-01 6.5971627899942709e-01 5.1109935580674390e+00 2.8209123888183552e+01 1 -5 0
1068 444 1 4.1499999999999998e-01 9.6655383198977560e+00 4.9621127905948601e+00 3.0694753436460786e+01 -5 3 0
2677 444 2 -8.2999999999999996e-01 4.1184648767811751e+00 2.6345121888186882e+00 2.5761568600865811e+01 2 -4 0
2679 444 1 4.1499999999999998e-01 3.8905088597257023e+00 2.5339899514670949e+00 2.6685778031510335e+01 2 -4 0
2550 444 1 4.1499999999999998e-01 1.0865456847968298e+01 1.9226688328471067e+00 2.7541447733057446e+01 4 -4 0
2548 444 2 -8.2999999999999996e-01 1.0109237931530343e+01 2.3458530991365358e+00 2.7134900689978881e+01 4 -4 0
1302 444 1 4.1499999999999998e-01 9.4517702689899519e+00 6.6324742781544463e+00 2.8867531598992869e+01 -4 2 0
2549 444 1 4.1499999999999998e-01 1.0239042886715048e+01 3.2796544096577098e+00 2.7300426577110386e+01 4 -4 0
4154 444 1 4.1499999999999998e-01 6.2143123692789697e+00 7.3991565771206469e+00 2.6404396283327610e+01 -2 2 0
5067 444 1 4.1499999999999998e-01 3.8811087329399210e+00 7.3948320517469535e-01 2.8179955263689795e+01 2 -2 0
1300 444 2 -8.2999999999999996e-01 9.7220155322200448e+00 7.1876890372430422e+00 2.8136138667115841e+01 -4 2 0
5048 444 1 4.1499999999999998e-01 8.6577323801577677e+00 3.1747700858896972e+00 3.0269188495821574e+01 5 3 0
1160 444 1 4.1499999999999998e-01 1.6133370578114092e+00 5.4342828395569187e+00 2.6494793316309739e+01 3 2 0
5939 444 1 4.1499999999999998e-01 3.8022688915166536e+00 2.8372581342976106e+00 2.9526234973103442e+01 -3 -5 0
3172 444 2 -8.2999999999999996e-01 6.9884856813012792e+00 6.7847268631581992e+00 2.5022385766829281e+01 -1 2 0
5938 444 2 -8.2999999999999996e-01 3.9706937274691394e+00 3.2304969428764796e+00 2.8669947558543345e+01 -3 -5 0
5800 444 2 -8.2999999999999996e-01 5.9490977005206664e+00 5.4786691495726787e+00 2.8634638321624465e+01 -4 -1 0
5802 444 1 4.1499999999999998e-01 6.1450564912545076e+00 5.6795809220370437e+00 2.9549770641763967e+01 -4 -1 0
541 444 2 -8.2999999999999996e-01 6.5581130179369094e+00 3.8309265791567295e+00 2.5427459493232664e+01 2 4 0
543 444 1 4.1499999999999998e-01 5.6190786105841424e+00 3.6531650209089412e+00 2.5374090833350927e+01 2 4 0
1161 444 1 4.1499999999999998e-01 2.0392242580020916e+00 5.0327779657119063e+00 2.5098616665800524e+01 3 2 0
1159 444 2 -8.2999999999999996e-01 2.3884054525773233e+00 5.2686204238089323e+00 2.5958083389306136e+01 3 2 0
5234 444 1 4.1499999999999998e-01 4.6890228626474828e+00 3.4729637691071100e+00 3.1718275422465950e+01 -3 2 0
5940 444 1 4.1499999999999998e-01 3.3942043917091493e+00 3.9939946465362919e+00 2.8638913694733041e+01 -3 -5 0
1376 444 1 4.1499999999999998e-01 6.9592170175753996e+00 2.9008394796455788e+00 2.6908678247839688e+01 0 1 0
542 444 1 4.1499999999999998e-01 6.6158727044804042e+00 4.7760978396530991e+00 2.5567272237961333e+01 2 4 0
4153 444 2 -8.2999999999999996e-01 5.7831965746400158e+00 7.7903979620040102e+00 2.7164199712998489e+01 -2 2 0
1375 444 2 -8.2999999999999996e-01 7.3365650431211140e+00 2.2827726797554568e+00 2.7534645185840372e+01 0 1 0
1377 444 1 4.1499999999999998e-01 8.2652847135746725e+00 2.5120907847994904e+00 2.7568191173831817e+01 0 1 0
4155 444 1 4.1499999999999998e-01 5.7067539933511062e+00 7.0725761473085464e+00 2.7792785580671858e+01 -2 2 0
4241 444 1 4.1499999999999998e-01 2.8479098917244290e+00 2.0330596813071571e+00 3.1445379540531270e+01 3 2 0
4224 444 1 4.1499999999999998e-01 9.1105155494755667e+00 2.3170824775299357e+00 2.5731752764392347e+01 2 2 0
4240 444 2 -8.2999999999999996e-01 2.9856070899332066e+00 2.8770500895188444e+00 3.1015319789518138e+01 3 2 0
5801 444 1 4.1499999999999998e-01 5.6268359522450080e+00 4.5774871989343957e+00 2.8650475322129591e+01 -4 -1 0
5049 444 1 4.1499999999999998e-01 9.8990578903072937e+00 2.3157415359086460e+00 3.0383539467280304e+01 5 3 0
5047 444 2 -8.2999999999999996e-01 9.5702160718254081e+00 3.1977045760980918e+00 3.0557424715871623e+01 5 3 0
1066 444 2 -8.2999999999999996e-01 9.7488634588422922e+00 5.9112242187164235e+00 3.0602681050544415e+01 -5 3 0
4242 444 1 4.1499999999999998e-01 2.3659202317513937e+00 3.4681815504141311e+00 3.1442851697416739e+01 3 2 0
1067 444 1 4.1499999999999998e-01 1.0397491321603880e+01 6.1601850200401156e+00 3.1261113029081095e+01 -5 3 0
1117 444 2 -8.2999999999999996e-01 2.7744269688418246e+00 5.2629570875832865e-01 3.2381887145871012e+01 -3 -2 0
2273 444 1 4.1499999999999998e-01 3.9563707510213370e-01 7.2134488015376412e+00 2.7238614613353203e+01 1 2 0
642 444 1 4.1499999999999998e-01 6.2231269186100535e+00 5.1295129103893959e+00 3.1776780983982956e+01 6 2 0
1372 444 2 -8.2999999999999996e-01 5.2406892940262146e+00 7.1351848296998155e-01 3.0564244119052862e+01 1 4 0
3174 444 1 4.1499999999999998e-01 7.9203821114051642e+00 7.0033184830573942e+00 2.5018033136947665e+01 -1 2 0
5744 444 1 4.1499999999999998e-01 3.8030316305172540e-01 1.4562579304208567e+00 3.0350509305239875e+01 1 2 0
2728 444 2 -8.2999999999999996e-01 1.0701411248897632e+01 5.0690997152330395e+00 2.6940387188404312e+01 4 -3 0
3202 444 2 -8.2999999999999996e-01 3.6857746616277161e+00 7.7591592532283356e+00 2.5634358877153264e+01 1 1 0
3198 444 1 4.1499999999999998e-01 6.1288274472271702e+00 2.2206806367786482e+00 3.0464990288830350e+01 6 1 0
1872 444 1 4.1499999999999998e-01 4.9721955727262301e+00 8.3331858031933392e-01 3.5165203941100280e+01 4 -2 0
4549 444 2 -8.2999999999999996e-01 3.7715652599415064e+00 5.3132144583232099e+00 3.7791383299362543e+01 5 -5 0
1099 444 2 -8.2999999999999996e-01 7.6273031977951078e-01 4.3854864615219986e+00 3.6513390975501444e+01 -1 0 0
5071 444 2 -8.2999999999999996e-01 1.4616033443951890e+00 6.9715831527025518e+00 3.7217199394258003e+01 2 0 0
1054 444 2 -8.2999999999999996e-01 1.3710011731700893e+00 4.4027060456378369e+00 3.2558162566034191e+01 -5 -1 0
3412 444 2 -8.2999999999999996e-01 5.1842545704612475e-01 6.8483594271376527e+00 3.2924668277649253e+01 -1 10 0
5072 444 1 4.1499999999999998e-01 1.8281257815779250e+00 7.5788414030975710e+00 3.6574446875517417e+01 2 0 0
2858 444 1 4.1499999999999998e-01 8.7989231007572249e-02 2.5458569953458978e+00 3.5685075173906768e+01 -3 -1 0
4339 444 2 -8.2999999999999996e-01 8.4221397791326140e+00 7.8036251694833965e+00 3.4486499018704123e+01 2 -2 0
1056 444 1 4.1499999999999998e-01 1.1396457260754171e+00 5.3267600396715737e+00 3.2652134067724006e+01 -5 -1 0
3330 444 1 4.1499999999999998e-01 9.6742746623175542e+00 4.9349293941429435e+00 3.4356661873675101e+01 1 -2 0
1871 444 1 4.1499999999999998e-01 6.3987843762698553e+00 1.2438599345021790e+00 3.4868226807146698e+01 4 -2 0
5233 444 2 -8.2999999999999996e-01 5.1761063554793152e+00 3.7127793155328717e+00 3.2506609658925569e+01 -3 2 0
5235 444 1 4.1499999999999998e-01 4.5109538834744676e+00 3.7655721051031779e+00 3.3192916545167598e+01 -3 2 0
4341 444 1 4.1499999999999998e-01 8.7889198410609275e+00 7.0701866127624324e+00 3.3992765911835278e+01 2 -2 0
3161 444 1 4.1499999999999998e-01 7.2370634596946815e+00 7.0946292106976676e+00 3.7126260482205922e+01 4 -2 0