LAMMPS data file via write_data, version 11 Aug 2017, timestep = 5000000

7656 atoms
7 atom types
4560 bonds
5 bond types
2910 angles
3 angle types
1050 dihedrals
2 dihedral types

0.0000000000000000e+00 4.5679949999999998e+01 xlo xhi
0.0000000000000000e+00 4.6885919999999999e+01 ylo yhi
0.0000000000000000e+00 6.5000000000000000e+01 zlo zhi

Masses

1 1.0079
2 15.9994
3 22.9898
4 15.9994
5 12.011
6 1.0079
7 107.868

Angle Coeffs # harmonic

1 50 109.471
2 50 104.51
3 55 104.52

Dihedral Coeffs # charmm

1 0.111111 3 0 0
2 0.333333 3 0 0

Atoms # full

6505 444 7 0.0000000000000000e+00 1.6907200000000000e+00 0.0000000000000000e+00 0.0000000000000000e+00 0 0 0
6506 444 7 0.0000000000000000e+00 4.2285000000000004e+00 1.4651900000000000e+00 0.0000000000000000e+00 0 0 0
6507 444 7 -4.8610000000000000e-02 1.6907700000000001e+00 0.0000000000000000e+00 7.1781499999999996e+00 0 0 0
6508 444 7 -4.8610000000000000e-02 4.2285500000000003e+00 1.4651900000000000e+00 7.1781499999999996e+00 0 0 0
6509 444 7 0.0000000000000000e+00 2.5366499999999998e+00 1.4651900000000000e+00 2.3926400000000001e+00 0 0 0
6510 444 7 0.0000000000000000e+00 5.0744199999999999e+00 0.0000000000000000e+00 2.3926400000000001e+00 0 0 0
6511 444 7 0.0000000000000000e+00 8.4509000000000001e-01 1.4651900000000000e+00 4.7824200000000001e+00 0 0 0
6512 444 7 0.0000000000000000e+00 3.3828600000000000e+00 0.0000000000000000e+00 4.7824499999999999e+00 0 0 0
6513 444 7 0.0000000000000000e+00 1.6907200000000000e+00 2.9303699999999999e+00 0.0000000000000000e+00 0 0 0
6514 444 7 0.0000000000000000e+00 4.2285000000000004e+00 4.3955599999999997e+00 0.0000000000000000e+00 0 0 0
6515 444 7 -4.8610000000000000e-02 1.6907700000000001e+00 2.9303699999999999e+00 7.1781899999999998e+00 0 0 0
6516 444 7 -4.8610000000000000e-02 4.2285500000000003e+00 4.3955599999999997e+00 7.1781600000000001e+00 0 0 0
6517 444 7 0.0000000000000000e+00 2.5366499999999998e+00 4.3955599999999997e+00 2.3926400000000001e+00 0 0 0
6518 444 7 0.0000000000000000e+00 5.0744199999999999e+00 2.9303699999999999e+00 2.3926400000000001e+00 0 0 0
6519 444 7 0.0000000000000000e+00 8.4509000000000001e-01 4.3955599999999997e+00 4.7824499999999999e+00 0 0 0
6520 444 7 0.0000000000000000e+00 3.3828700000000000e+00 2.9303699999999999e+00 4.7824400000000002e+00 0 0 0
6521 444 7 0.0000000000000000e+00 1.6907200000000000e+00 5.8607399999999998e+00 0.0000000000000000e+00 0 0 0
6522 444 7 0.0000000000000000e+00 4.2285000000000004e+00 7.3259299999999996e+00 0.0000000000000000e+00 0 0 0
6523 444 7 -4.8610000000000000e-02 1.6907700000000001e+00 5.8607399999999998e+00 7.1781499999999996e+00 0 0 0
6524 444 7 -4.8610000000000000e-02 4.2285500000000003e+00 7.3259299999999996e+00 7.1781499999999996e+00 0 0 0
6525 444 7 0.0000000000000000e+00 2.5366499999999998e+00 7.3259299999999996e+00 2.3926400000000001e+00 0 0 0
6526 444 7 0.0000000000000000e+00 5.0744199999999999e+00 5.8607399999999998e+00 2.3926400000000001e+00 0 0 0
6527 444 7 0.0000000000000000e+00 8.4509000000000001e-01 7.3259299999999996e+00 4.7824200000000001e+00 0 0 0
6528 444 7 0.0000000000000000e+00 3.3828600000000000e+00 5.8607399999999998e+00 4.7824499999999999e+00 0 0 0
6633 444 7 0.0000000000000000e+00 6.7662699999999996e+00 0.0000000000000000e+00 0.0000000000000000e+00 0 0 0
6634 444 7 0.0000000000000000e+00 9.3040500000000002e+00 1.4651900000000000e+00 0.0000000000000000e+00 0 0 0
6635 444 7 -4.8610000000000000e-02 6.7663200000000003e+00 0.0000000000000000e+00 7.1781499999999996e+00 0 0 0
6636 444 7 -4.8610000000000000e-02 9.3041000000000000e+00 1.4651900000000000e+00 7.1781499999999996e+00 0 0 0
6637 444 7 0.0000000000000000e+00 7.6121999999999996e+00 1.4651900000000000e+00 2.3926400000000001e+00 0 0 0
6638 444 7 0.0000000000000000e+00 1.0149970000000000e+01 0.0000000000000000e+00 2.3926400000000001e+00 0 0 0
6639 444 7 0.0000000000000000e+00 5.9206399999999997e+00 1.4651900000000000e+00 4.7824200000000001e+00 0 0 0
6640 444 7 0.0000000000000000e+00 8.4584100000000007e+00 0.0000000000000000e+00 4.7824499999999999e+00 0 0 0
6641 444 7 0.0000000000000000e+00 6.7662699999999996e+00 2.9303699999999999e+00 0.0000000000000000e+00 0 0 0
6642 444 7 0.0000000000000000e+00 9.3040500000000002e+00 4.3955599999999997e+00 0.0000000000000000e+00 0 0 0
6643 444 7 -4.8610000000000000e-02 6.7663200000000003e+00 2.9303699999999999e+00 7.1781899999999998e+00 0 0 0
6644 444 7 -4.8610000000000000e-02 9.3041000000000000e+00 4.3955599999999997e+00 7.1781600000000001e+00 0 0 0
6645 444 7 0.0000000000000000e+00 7.6121999999999996e+00 4.3955599999999997e+00 2.3926400000000001e+00 0 0 0
6646 444 7 0.0000000000000000e+00 1.0149970000000000e+01 2.9303699999999999e+00 2.3926400000000001e+00 0 0 0
6647 444 7 0.0000000000000000e+00 5.9206399999999997e+00 4.3955599999999997e+00 4.7824499999999999e+00 0 0 0
6648 444 7 0.0000000000000000e+00 8.4584200000000003e+00 2.9303699999999999e+00 4.7824400000000002e+00 0 0 0
6767 444 7 0.0000000000000000e+00 1.0996190000000000e+01 1.4651900000000000e+00 4.7824200000000001e+00 0 0 0
6775 444 7 0.0000000000000000e+00 1.0996190000000000e+01 4.3955599999999997e+00 4.7824499999999999e+00 0 0 0
6649 444 7 0.0000000000000000e+00 6.7662699999999996e+00 5.8607399999999998e+00 0.0000000000000000e+00 0 0 0
6650 444 7 0.0000000000000000e+00 9.3040500000000002e+00 7.3259299999999996e+00 0.0000000000000000e+00 0 0 0
6651 444 7 -4.8610000000000000e-02 6.7663200000000003e+00 5.8607399999999998e+00 7.1781499999999996e+00 0 0 0
6652 444 7 -4.8610000000000000e-02 9.3041000000000000e+00 7.3259299999999996e+00 7.1781499999999996e+00 0 0 0
6653 444 7 0.0000000000000000e+00 7.6121999999999996e+00 7.3259299999999996e+00 2.3926400000000001e+00 0 0 0
6654 444 7 0.0000000000000000e+00 1.0149970000000000e+01 5.8607399999999998e+00 2.3926400000000001e+00 0 0 0
6655 444 7 0.0000000000000000e+00 5.9206399999999997e+00 7.3259299999999996e+00 4.7824200000000001e+00 0 0 0
6656 444 7 0.0000000000000000e+00 8.4584100000000007e+00 5.8607399999999998e+00 4.7824499999999999e+00 0 0 0
6783 444 7 0.0000000000000000e+00 1.0996190000000000e+01 7.3259299999999996e+00 4.7824200000000001e+00 0 0 0
1471 444 2 -8.2999999999999996e-01 1.7661441691771471e+00 7.2906574121877652e+00 1.1288795895029329e+01 3 2 0
2151 444 1 4.1499999999999998e-01 1.1176005514104808e+01 2.2248043532839232e-01 1.1087573418494038e+01 -5 -4 0
2955 444 1 4.1499999999999998e-01 6.5927598706581492e+00 4.3788811229120226e+00 9.6505742281639328e+00 4 1 0
978 444 1 4.1499999999999998e-01 2.4582637295339351e+00 3.3835224133391426e+00 1.0737159768989549e+01 1 -1 0
977 444 1 4.1499999999999998e-01 3.3352636314074986e+00 4.4292954045089861e+00 1.0082083231874297e+01 1 -1 0
2954 444 1 4.1499999999999998e-01 5.5849965112292814e+00 3.7141814491254679e+00 1.0564074394414655e+01 4 1 0
2953 444 2 -8.2999999999999996e-01 6.5260868985475291e+00 3.8156137594221868e+00 1.0421623244958241e+01 4 1 0
976 444 2 -8.2999999999999996e-01 3.2948493773972758e+00 3.8384533350246288e+00 1.0834083364146966e+01 1 -1 0
1473 444 1 4.1499999999999998e-01 2.5214746602526885e+00 7.7507415409987104e+00 1.1654897446342266e+01 3 2 0
3629 444 1 4.1499999999999998e-01 2.5824757816028256e+00 2.9994182792333226e+00 1.3507273814971198e+01 2 5 0
1669 444 2 -8.2999999999999996e-01 5.0993698994863799e+00 4.1688417134268024e-01 1.0974289512477601e+01 1 8 0
5921 444 1 4.1499999999999998e-01 3.8876713832309719e+00 1.7422881536938903e+00 1.4486057281337787e+01 6 -3 0
1476 444 1 4.1499999999999998e-01 8.9232411358950703e+00 4.8527691527442967e+00 1.4728866423863861e+01 1 3 0
3628 444 2 -8.2999999999999996e-01 3.5138086682920289e+00 3.2165806189729635e+00 1.3466146548512677e+01 2 5 0
3630 444 1 4.1499999999999998e-01 3.6090688176571497e+00 3.7117657344518467e+00 1.2652544007495191e+01 2 5 0
1474 444 2 -8.2999999999999996e-01 8.6928881606952650e+00 5.4196876907847384e+00 1.5464918564879055e+01 1 3 0
5922 444 1 4.1499999999999998e-01 5.2173873678320062e+00 1.0221995910131869e+00 1.4413786091589136e+01 6 -3 0
5920 444 2 -8.2999999999999996e-01 4.3124219324884221e+00 9.1316173301641834e-01 1.4705985053049451e+01 6 -3 0
1970 444 1 4.1499999999999998e-01 4.9181446461764668e+00 3.8996196786953377e+00 1.4275503924684687e+01 7 -7 0
1971 444 1 4.1499999999999998e-01 6.0471079392264846e+00 4.2347262873549827e+00 1.5226840911814801e+01 7 -7 0
1969 444 2 -8.2999999999999996e-01 5.8729633306688864e+00 3.9249109163362177e+00 1.4338066170777656e+01 7 -7 0
2907 444 1 4.1499999999999998e-01 9.6625022232537496e+00 2.2564934445826701e+00 1.0138760527376030e+01 -3 -3 0
1671 444 1 4.1499999999999998e-01 5.6963157634501709e+00 8.8598708235599821e-01 1.1557239942710916e+01 1 8 0
1913 444 1 4.1499999999999998e-01 9.2681814559476372e+00 4.2348226466253696e+00 1.2224443890712129e+01 2 -5 0
1912 444 2 -8.2999999999999996e-01 9.6347242263481245e+00 3.8036685028816546e+00 1.2996444372628298e+01 2 -5 0
1475 444 1 4.1499999999999998e-01 8.7233744748929318e+00 6.3057502630099274e+00 1.5104092251809067e+01 1 3 0
3416 444 1 4.1499999999999998e-01 2.1736023598107188e+00 6.6238090140478301e+00 1.5721266148750226e+01 -3 3 0
2214 444 1 4.1499999999999998e-01 6.1600831854520122e+00 2.2911100744917934e+00 1.3001375963839793e+01 0 1 0
2119 444 2 -8.2999999999999996e-01 7.9637383798957133e+00 1.4594942543365741e+00 1.0245930028047633e+01 0 1 0
2121 444 1 4.1499999999999998e-01 7.6116406056393391e+00 2.2671827429114422e+00 1.0619960983241544e+01 0 1 0
2213 444 1 4.1499999999999998e-01 7.4028491530978728e+00 1.4788438200624472e+00 1.3297436358440438e+01 0 1 0
2212 444 2 -8.2999999999999996e-01 6.4768256167722038e+00 1.3905818404648096e+00 1.3071774699184308e+01 0 1 0
2906 444 1 4.1499999999999998e-01 1.0133782719841131e+01 3.3365504412924611e+00 9.1883569170339410e+00 -3 -3 0
6268 444 2 -8.2999999999999996e-01 1.0554078050954656e+00 2.2715905488975539e+00 1.0318065657330600e+01 6 -1 0
2120 444 1 4.1499999999999998e-01 7.2193934238214581e+00 1.0583551099046675e+00 9.7972986770860846e+00 0 1 0
1412 444 1 4.1499999999999998e-01 8.9383860199434970e+00 5.5493049443998921e-01 1.5229313095614710e+01 -1 0 0
6270 444 1 4.1499999999999998e-01 1.2429929820682126e-01 2.0610788610729598e+00 1.0247679759288186e+01 6 -1 0
4287 444 1 4.1499999999999998e-01 7.5954507015406358e-01 2.5351952911238507e+00 1.1958077465716199e+01 7 1 0
6467 444 1 4.1499999999999998e-01 9.4546705034149863e+00 2.2987800323869769e+00 1.3447823679846307e+01 3 0 0
1472 444 1 4.1499999999999998e-01 1.2206702734904573e+00 7.0831601962731421e+00 1.2047502031152922e+01 3 2 0
1670 444 1 4.1499999999999998e-01 4.5243936359222472e+00 1.0963627785292069e+00 1.0622233865916877e+01 1 8 0
6466 444 2 -8.2999999999999996e-01 9.3347838392279154e+00 1.3843235866293959e+00 1.3704004340058511e+01 3 0 0
6468 444 1 4.1499999999999998e-01 9.7208188951029602e+00 8.8157410437961314e-01 1.2986751386771044e+01 3 0 0
5584 444 2 -8.2999999999999996e-01 7.1550213360261044e+00 6.5336090087263905e+00 1.0202954596003659e+01 0 2 0
4285 444 2 -8.2999999999999996e-01 8.5774393086966860e-01 2.7937796115958213e+00 1.2874441483697517e+01 7 1 0
2905 444 2 -8.2999999999999996e-01 1.0108075996257133e+01 3.1033670232721495e+00 1.0116363720182669e+01 -3 -3 0
2749 444 2 -8.2999999999999996e-01 5.6142788845233085e+00 6.3568704500572162e+00 1.2807218131828455e+01 -2 2 0
1914 444 1 4.1499999999999998e-01 1.0531976279421331e+01 4.1324917243049235e+00 1.3051635726597542e+01 2 -5 0
3415 444 2 -8.2999999999999996e-01 2.1315112675213115e+00 5.6851125884496074e+00 1.5538756368305913e+01 -3 3 0
214 444 6 2.9999999999999999e-02 1.0628296506023075e+01 2.7409619331644044e+00 1.6061161946602468e+01 0 1 0
2750 444 1 4.1499999999999998e-01 6.0526702754075918e+00 5.5563080880643616e+00 1.3095567284710214e+01 -2 2 0
3417 444 1 4.1499999999999998e-01 2.7542812209869600e+00 5.5513892432099983e+00 1.4824258149878302e+01 -3 3 0
6269 444 1 4.1499999999999998e-01 1.5036083216451019e+00 1.4799015450261352e+00 1.0020446866049637e+01 6 -1 0
2669 444 1 4.1499999999999998e-01 1.1074475359096036e+01 7.1688030620278598e+00 1.0751978242238083e+01 1 3 0
5586 444 1 4.1499999999999998e-01 7.2883436043081327e+00 7.1896263370707629e+00 9.5187774966354457e+00 0 2 0
5458 444 2 -8.2999999999999996e-01 6.2622838923999486e+00 7.2232184548427005e+00 1.5697304872590454e+01 -2 2 0
5460 444 1 4.1499999999999998e-01 6.1674150688095972e+00 6.9408316519357021e+00 1.4787640369418810e+01 -2 2 0
5459 444 1 4.1499999999999998e-01 6.0122344979841982e+00 6.4570631909519500e+00 1.6213747768525515e+01 -2 2 0
2576 444 1 4.1499999999999998e-01 8.8040859419233648e+00 7.5549386496844395e+00 1.1445972768342680e+01 -1 -2 0
3721 444 2 -8.2999999999999996e-01 9.1386763149669079e+00 7.5660498236761891e+00 1.4225910538236585e+01 -3 2 0
2751 444 1 4.1499999999999998e-01 5.8830910581833793e+00 6.4623086515124619e+00 1.1894608664224078e+01 -2 2 0
4557 444 1 4.1499999999999998e-01 4.2462358573681973e+00 7.4885705036410064e+00 1.2999476096196190e+01 -1 4 0
4286 444 1 4.1499999999999998e-01 6.0927042271545206e-01 3.7180201029948470e+00 1.2890943072119017e+01 7 1 0
5585 444 1 4.1499999999999998e-01 8.0191181363564024e+00 6.1426329093446288e+00 1.0332207684205901e+01 0 2 0
2577 444 1 4.1499999999999998e-01 9.3910400848825439e+00 7.0458759214076805e+00 1.2745293873953946e+01 -1 -2 0
2575 444 2 -8.2999999999999996e-01 9.3921807193370714e+00 6.8884268975669221e+00 1.1801132659160260e+01 -1 -2 0
567 444 1 4.1499999999999998e-01 3.9873406815217649e+00 7.2366632229861878e+00 1.0466336794114000e+01 -5 4 0
1411 444 2 -8.2999999999999996e-01 8.7054233920190356e+00 2.2168740079430738e-01 1.6095864188750760e+01 -1 0 0
2149 444 2 -8.2999999999999996e-01 1.0407076070556560e+01 1.7443454609369488e-01 1.1655614799823480e+01 -5 -4 0
1082 444 1 4.1499999999999998e-01 4.0005276652142090e+00 7.6212146111252750e+00 2.1443608126667780e+01 -5 3 0
1506 444 1 4.1499999999999998e-01 7.6116843318961021e+00 4.5479068449861320e+00 1.6691189399578121e+01 4 2 0
2833 444 2 -8.2999999999999996e-01 6.9320353935415939e+00 1.6145700897098474e+00 1.7576211389370421e+01 9 -3 0
2835 444 1 4.1499999999999998e-01 7.7092959871503002e+00 1.2684736448530847e+00 1.7137673907755890e+01 9 -3 0
3263 444 1 4.1499999999999998e-01 8.1340701749413047e-02 3.9107530395775947e+00 1.6754349040290155e+01 -3 1 0
3262 444 2 -8.2999999999999996e-01 6.5516575387911724e-01 4.2984575125921411e+00 1.7415137890073776e+01 -3 1 0
58 444 6 2.9999999999999999e-02 2.1038310884678985e-01 4.7982474358599404e-02 1.8123973761265876e+01 1 2 0
2407 444 2 -8.2999999999999996e-01 3.2510602861749747e+00 7.0833577801865628e+00 2.2864304082904976e+01 4 -1 0
5336 444 1 4.1499999999999998e-01 1.6126911840877354e+00 3.6784103645561363e+00 2.0012351637090308e+01 0 1 0
1832 444 1 4.1499999999999998e-01 1.0119968360248460e+01 2.6187897107283518e+00 2.3917819191138765e+01 -2 -1 0
1505 444 1 4.1499999999999998e-01 6.9159533545852225e+00 3.2379030802101885e+00 1.6994082042733993e+01 4 2 0
2834 444 1 4.1499999999999998e-01 6.5988658513885685e+00 8.7893698029529210e-01 1.8090092600908584e+01 9 -3 0
2838 444 1 4.1499999999999998e-01 9.1181426613796628e+00 5.9534093199829492e+00 1.7040121033710800e+01 -1 0 0
671 444 1 4.1499999999999998e-01 6.2368343770068324e-01 3.1534153376924237e+00 2.3604672243167922e+01 5 -2 0
2282 444 1 4.1499999999999998e-01 1.0725663366466403e+01 5.7430246448025191e+00 1.9018955929970801e+01 -6 7 0
1451 444 1 4.1499999999999998e-01 7.4711536049126046e+00 1.6291051672120105e+00 2.0912529332688390e+01 -2 0 0
1504 444 2 -8.2999999999999996e-01 6.7440335177812800e+00 4.1610902032089152e+00 1.6808606843778314e+01 4 2 0
3776 444 1 4.1499999999999998e-01 3.9157334103297785e+00 2.4492105438772180e-01 1.7688363159514562e+01 -3 2 0
6444 444 1 4.1499999999999998e-01 7.3121281524997253e+00 6.1579522495598003e+00 2.0488904020801304e+01 -3 1 0
670 444 2 -8.2999999999999996e-01 9.5108682924191956e-01 2.5654823208887292e+00 2.4285387800256323e+01 5 -2 0
5780 444 1 4.1499999999999998e-01 5.2375424285220191e+00 4.5066364785004343e+00 1.7684959584126187e+01 1 -3 0
2427 444 1 4.1499999999999998e-01 2.0567696016004593e+00 5.7827592362107563e+00 1.9306329174884397e+01 -1 3 0
3264 444 1 4.1499999999999998e-01 1.2826081736482462e+00 4.8183436101056119e+00 1.6912876684677766e+01 -3 1 0
5779 444 2 -8.2999999999999996e-01 4.3869536260184185e+00 4.4012949846783664e+00 1.8111145866072238e+01 1 -3 0
212 444 6 2.9999999999999999e-02 9.9818561017939125e+00 2.8799362767629155e+00 1.8889911062872482e+01 0 1 0
5471 444 1 4.1499999999999998e-01 3.6456506568151137e+00 4.3525605317683497e-01 2.1326876105058801e+01 1 2 0
5781 444 1 4.1499999999999998e-01 4.1002281536490166e+00 3.5230271695696818e+00 1.7860813395816656e+01 1 -3 0
6146 444 1 4.1499999999999998e-01 5.7871211489148378e+00 2.6449494242643232e+00 1.9674521423856056e+01 -4 6 0
6147 444 1 4.1499999999999998e-01 6.4293683770522891e+00 3.7304277259657672e+00 2.0511868769493020e+01 -4 6 0
6145 444 2 -8.2999999999999996e-01 6.0165913261144528e+00 2.8692133910234925e+00 2.0576342346289405e+01 -4 6 0
3335 444 1 4.1499999999999998e-01 8.4984662393955528e+00 5.9595378916745378e+00 2.3983171558881388e+01 0 -1 0
3775 444 2 -8.2999999999999996e-01 3.6721802536960673e+00 1.0703161145287643e+00 1.7269272064006284e+01 -3 2 0
3777 444 1 4.1499999999999998e-01 3.8993753688693746e+00 9.4766415301907614e-01 1.6347549784629162e+01 -3 2 0
1309 444 2 -8.2999999999999996e-01 2.1220043687417132e+00 1.8555647931934307e+00 1.9335827749806100e+01 -2 2 0
1833 444 1 4.1499999999999998e-01 8.8267962822744188e+00 3.3171338540006121e+00 2.3554615871485950e+01 -2 -1 0
1450 444 2 -8.2999999999999996e-01 8.1325840078669476e+00 1.1739815625978520e+00 2.1433686343955543e+01 -2 0 0
1452 444 1 4.1499999999999998e-01 8.6377768575067009e+00 1.8750005469839615e+00 2.1845492985523880e+01 -2 0 0
1311 444 1 4.1499999999999998e-01 2.5230137761597624e+00 1.2626403248283293e+00 1.9971331472729421e+01 -2 2 0
1310 444 1 4.1499999999999998e-01 2.5867227288310426e+00 1.6802749069179497e+00 1.8517571490426189e+01 -2 2 0
1111 444 2 -8.2999999999999996e-01 4.3911513496470764e+00 1.7097657493471330e+00 2.2186094864456617e+01 0 3 0
3299 444 1 4.1499999999999998e-01 6.8731942651879692e+00 4.5099855541770744e+00 2.3478161272485202e+01 2 5 0
3298 444 2 -8.2999999999999996e-01 7.1087254767679440e+00 5.4171651853653966e+00 2.3283781644695324e+01 2 5 0
2426 444 1 4.1499999999999998e-01 3.3316702123742599e+00 5.5482936552105118e+00 1.8524312846959823e+01 -1 3 0
2425 444 2 -8.2999999999999996e-01 2.8015352775319942e+00 6.2414920412044914e+00 1.8917587393364474e+01 -1 3 0
1113 444 1 4.1499999999999998e-01 5.0008074927261950e+00 2.2315370131469070e+00 2.1664263674065317e+01 0 3 0
1112 444 1 4.1499999999999998e-01 4.4254515991027450e+00 2.1019997997323006e+00 2.3058567324010294e+01 0 3 0
213 444 6 2.9999999999999999e-02 9.9425848057891582e+00 1.5001010963076731e+00 1.7777258754687843e+01 0 1 0
194 444 5 1.4000000000000001e-01 1.0535432286132894e+01 2.3317073747764256e+00 1.8160819507141532e+01 0 1 0
6442 444 2 -8.2999999999999996e-01 7.3020779671963840e+00 5.2078008604041406e+00 2.0373391144237129e+01 -3 1 0
6443 444 1 4.1499999999999998e-01 7.7571219705476855e+00 5.0620544052770038e+00 1.9543978801901837e+01 -3 1 0
1831 444 2 -8.2999999999999996e-01 9.6166909888949625e+00 2.9382832284178542e+00 2.3168908165262877e+01 -2 -1 0
3300 444 1 4.1499999999999998e-01 7.0269181225786621e+00 5.4878387401682147e+00 2.2332705800642888e+01 2 5 0
3336 444 1 4.1499999999999998e-01 9.3220845550971170e+00 7.1994088266579652e+00 2.3707004657378356e+01 0 -1 0
195 444 5 1.4000000000000001e-01 1.1032887032185936e+01 3.1816061573155663e+00 1.7023755126496468e+01 0 1 0
1083 444 1 4.1499999999999998e-01 4.0322300367708737e+00 7.4706026457870616e+00 1.9937551586511656e+01 -5 3 0
215 444 6 2.9999999999999999e-02 1.0838757766256126e+01 4.2359707138523079e+00 1.6988237130249498e+01 0 1 0
6231 444 1 4.1499999999999998e-01 1.1000086309627818e+01 3.5620802027856362e+00 2.2203868872310366e+01 -3 4 0
2409 444 1 4.1499999999999998e-01 2.7485643905160564e+00 6.2694172788504954e+00 2.2829223436557900e+01 4 -1 0
3334 444 2 -8.2999999999999996e-01 9.3042021184706538e+00 6.4063652862129192e+00 2.4242722908086400e+01 0 -1 0
4125 444 1 4.1499999999999998e-01 2.9249396653095991e+00 2.5120137615405911e+00 2.4029947870257040e+01 -6 6 0
5769 444 1 4.1499999999999998e-01 6.0306489267612902e+00 6.3861295188681222e+00 2.4009841344820543e+01 1 4 0
2837 444 1 4.1499999999999998e-01 9.2183577156829308e+00 7.1740408889329066e+00 1.7930014746833592e+01 -1 0 0
5335 444 2 -8.2999999999999996e-01 1.0241519716352141e+00 4.4289596444609387e+00 1.9931547281715055e+01 0 1 0
2836 444 2 -8.2999999999999996e-01 9.0150947238980397e+00 6.2388432301719643e+00 1.7947942876102289e+01 -1 0 0
5337 444 1 4.1499999999999998e-01 7.5704776233215554e-01 4.4266160789986708e+00 1.9012372750102873e+01 0 1 0
1406 444 1 4.1499999999999998e-01 1.1383883446536778e+01 7.5802755142817801e+00 2.2091036437334385e+01 1 3 0
2408 444 1 4.1499999999999998e-01 3.8562280885682565e+00 6.9604549162400664e+00 2.3595672109812998e+01 4 -1 0
6119 444 1 4.1499999999999998e-01 3.5101050839911963e-01 4.1393630955455372e+00 2.1561263925968142e+01 1 0 0
3344 444 1 4.1499999999999998e-01 3.1221862315755167e+00 7.5666776499928341e+00 1.7902460923882757e+01 -3 5 0
209 444 6 2.9999999999999999e-02 1.1148966694526314e+01 1.0481456809348242e+00 2.0487784631826258e+01 0 1 0
2616 444 1 4.1499999999999998e-01 1.0628255364256614e+01 5.3589238299183439e-01 3.1720015209998397e+01 1 1 0
514 444 2 -8.2999999999999996e-01 8.3885750692878798e+00 7.8858470168168959e-01 2.8849112644074903e+01 1 2 0
5698 444 2 -8.2999999999999996e-01 4.1919116272379181e-01 3.1247221327705823e+00 3.0162657122641523e+01 4 0 0
5992 444 2 -8.2999999999999996e-01 4.5625867962501870e-01 5.6937979149491846e-01 2.9082637147259820e+01 -8 0 0
5699 444 1 4.1499999999999998e-01 5.6931302708265696e-01 2.1801940431907103e+00 3.0123135225113362e+01 4 0 0
1044 444 1 4.1499999999999998e-01 1.0921048601263397e+01 5.3260740199970149e+00 2.4698354618351207e+01 1 -2 0
1882 444 2 -8.2999999999999996e-01 5.8851793811924384e+00 3.1525624331671448e-01 2.4387840109753466e+01 2 -1 0
4664 444 1 4.1499999999999998e-01 9.6006618514272213e-01 4.4629720410125078e+00 2.6042215226816143e+01 0 -6 0
700 444 2 -8.2999999999999996e-01 1.0698989662756674e+01 3.5306907375751226e+00 2.7784625042226647e+01 1 3 0
653 444 1 4.1499999999999998e-01 3.2264940650703915e+00 5.3944194813718891e+00 2.5942417383476325e+01 2 3 0
5993 444 1 4.1499999999999998e-01 1.0646438123158769e-01 6.8622240915169475e-01 2.8199334342415721e+01 -8 0 0
672 444 1 4.1499999999999998e-01 2.3550725777092205e-01 1.9470862213954123e+00 2.4432914086404192e+01 5 -2 0
3635 444 1 4.1499999999999998e-01 4.8324279746638616e+00 4.9250462022970926e-01 2.6561519911075287e+01 2 4 0
3096 444 1 4.1499999999999998e-01 7.7164778882889129e+00 4.3822027029910027e-01 2.5291806453082568e+01 0 8 0
515 444 1 4.1499999999999998e-01 8.2307818512077215e+00 8.5557000759889756e-01 2.7907387220142461e+01 1 2 0
516 444 1 4.1499999999999998e-01 7.5233214625176617e+00 8.9141618235327480e-01 2.9245337307201364e+01 1 2 0
1884 444 1 4.1499999999999998e-01 4.9898562259732255e+00 2.5433621511124399e-01 2.4720882872384209e+01 2 -1 0
3400 444 2 -8.2999999999999996e-01 9.0261457692384663e+00 5.4691883189719688e+00 2.8512347540158942e+01 1 0 0
935 444 1 4.1499999999999998e-01 1.1320687224829978e+01 7.3227347064282382e+00 2.8839881553024544e+01 1 -1 0
5768 444 1 4.1499999999999998e-01 6.0340064809072951e+00 7.6387030538962923e+00 2.4860102201623754e+01 1 4 0
5748 444 1 4.1499999999999998e-01 2.9871438556286916e+00 3.5497628516210376e+00 2.7379412694932185e+01 -4 -1 0
5747 444 1 4.1499999999999998e-01 2.7586275251667876e+00 2.7621604344877264e+00 2.6106872655533110e+01 -4 -1 0
5767 444 2 -8.2999999999999996e-01 5.4784662928969565e+00 6.9061406516465338e+00 2.4593720326868961e+01 1 4 0
652 444 2 -8.2999999999999996e-01 3.9895993316696678e+00 4.9632714219414371e+00 2.5557692069193561e+01 2 3 0
2256 444 1 4.1499999999999998e-01 2.0350901656051068e+00 5.8445124791377612e-01 2.5788251017689635e+01 -2 -4 0
4665 444 1 4.1499999999999998e-01 3.6280551650227233e-01 5.8513763746668213e+00 2.6128865723520359e+01 0 -6 0
654 444 1 4.1499999999999998e-01 4.5495962187361290e+00 5.6824422141135749e+00 2.5265410141341683e+01 2 3 0
4663 444 2 -8.2999999999999996e-01 1.1671407180618198e+00 5.3613564144172559e+00 2.6299620628118824e+01 0 -6 0
1787 444 1 4.1499999999999998e-01 5.9069264398600199e+00 6.1582487365091581e+00 2.9524990648941493e+01 -2 -1 0
1430 444 1 4.1499999999999998e-01 1.4507458027259938e+00 6.5696924096337810e+00 2.9920303710360603e+01 2 2 0
5202 444 1 4.1499999999999998e-01 9.7838012273963546e+00 2.0286147101634622e-01 2.9734208417226942e+01 -2 6 0
5746 444 2 -8.2999999999999996e-01 2.7207038398261854e+00 2.6875127238756327e+00 2.7060404080944853e+01 -4 -1 0
1786 444 2 -8.2999999999999996e-01 6.7887113013141569e+00 6.5292725039303310e+00 2.9492889090338196e+01 -2 -1 0
2987 444 1 4.1499999999999998e-01 8.2848033801993246e+00 7.0604215564954336e+00 2.5793508484290022e+01 5 3 0
1390 444 2 -8.2999999999999996e-01 5.6581050349657609e+00 3.2387548975187808e+00 2.8049838263396783e+01 -1 0 0
1391 444 1 4.1499999999999998e-01 5.4329773199172475e+00 2.3884885476107467e+00 2.8427458378564271e+01 -1 0 0
6042 444 1 4.1499999999999998e-01 1.0649898183344561e+01 2.8491347545233645e+00 2.6223688921136851e+01 -4 5 0
6005 444 1 4.1499999999999998e-01 4.6765003524910300e+00 1.0300511222862003e+00 2.9658281538356402e+01 -1 2 0
3094 444 2 -8.2999999999999996e-01 8.3549317592582817e+00 1.8969281448293615e-01 2.5960269569066046e+01 0 8 0
4124 444 1 4.1499999999999998e-01 3.9500315407574189e+00 3.2829662197864584e+00 2.4834133979701477e+01 -6 6 0
1392 444 1 4.1499999999999998e-01 6.5643740788473179e+00 3.3885308448944165e+00 2.8319051312159331e+01 -1 0 0
2986 444 2 -8.2999999999999996e-01 7.9132096037679789e+00 7.2947798938982302e+00 2.6643935590394630e+01 5 3 0
4123 444 2 -8.2999999999999996e-01 3.6588928216699803e+00 2.3936029222184056e+00 2.4632877428577849e+01 -6 6 0
3402 444 1 4.1499999999999998e-01 8.3314060934260894e+00 5.7944933449669112e+00 2.9084839154740276e+01 1 0 0
6207 444 1 4.1499999999999998e-01 6.7741644829838998e-01 3.9657276687649801e+00 3.1904910379645170e+01 3 2 0
6370 444 2 -8.2999999999999996e-01 6.6530561748081878e+00 3.0026859337009082e+00 2.4461449300219623e+01 0 -3 0
1287 444 1 4.1499999999999998e-01 1.6159155398852305e+00 4.4704153403876079e+00 2.9257657826943074e+01 -1 2 0
6371 444 1 4.1499999999999998e-01 6.5602856056692644e+00 3.1790072824736955e+00 2.5397684622851166e+01 0 -3 0
6372 444 1 4.1499999999999998e-01 6.4822079215349309e+00 2.0647584496539642e+00 2.4375799499206877e+01 0 -3 0
4066 444 2 -8.2999999999999996e-01 3.0718880193822553e+00 8.8704198608440832e-01 2.8973052878498979e+01 1 1 0
4068 444 1 4.1499999999999998e-01 2.9056189009355946e+00 1.6711717037166116e+00 2.8449863530873458e+01 1 1 0
4067 444 1 4.1499999999999998e-01 2.2018784498328166e+00 5.7879914394022258e-01 2.9226630425524405e+01 1 1 0
6004 444 2 -8.2999999999999996e-01 5.5449553353060343e+00 1.2688213399293762e+00 2.9982328914425853e+01 -1 2 0
1317 444 1 4.1499999999999998e-01 3.6532991546795794e+00 5.3420750957466678e+00 2.8936922196683902e+01 7 -2 0
6006 444 1 4.1499999999999998e-01 5.3863624476593523e+00 1.6168974804734233e+00 3.0859781592105687e+01 -1 2 0
2988 444 1 4.1499999999999998e-01 8.2037385859255867e+00 6.5984040297917623e+00 2.7232905469762123e+01 5 3 0
1316 444 1 4.1499999999999998e-01 4.9060294443823667e+00 4.4922650516520752e+00 2.8917302742421661e+01 7 -2 0
1285 444 2 -8.2999999999999996e-01 2.0101477374660011e+00 5.2385004048958388e+00 2.8844307118754081e+01 -1 2 0
1315 444 2 -8.2999999999999996e-01 4.5297303773169366e+00 5.2768174144612283e+00 2.9316186772618099e+01 7 -2 0
1788 444 1 4.1499999999999998e-01 6.7363395354133289e+00 7.3194066952030168e+00 3.0030641227253057e+01 -2 -1 0
1286 444 1 4.1499999999999998e-01 1.5015229846434237e+00 5.3678389358991820e+00 2.8043803764597339e+01 -1 2 0
3401 444 1 4.1499999999999998e-01 9.8241458452527404e+00 5.8784045861333478e+00 2.8846966987046976e+01 1 0 0
6421 444 2 -8.2999999999999996e-01 4.6026560572249524e+00 1.9071190456083027e+00 3.2450172585799116e+01 -2 2 0
3083 444 1 4.1499999999999998e-01 8.1720661434370854e+00 2.9126212857515439e+00 3.2010280835312336e+01 -5 2 0
1431 444 1 4.1499999999999998e-01 5.5829628881598078e-02 7.1108271529886267e+00 3.0151122491494927e+01 2 2 0
3591 444 1 4.1499999999999998e-01 4.1811223499618810e+00 4.0733989189081621e+00 3.2143521443400509e+01 4 0 0
3589 444 2 -8.2999999999999996e-01 4.4496771423438268e+00 4.9877231570733036e+00 3.2053402633321625e+01 4 0 0
3590 444 1 4.1499999999999998e-01 4.6082301558189771e+00 5.1000131667352289e+00 3.1116127971353116e+01 4 0 0
3082 444 2 -8.2999999999999996e-01 8.2483220242007924e+00 3.7647338109687341e+00 3.2439607377869827e+01 -5 2 0
1429 444 2 -8.2999999999999996e-01 9.8093096860947770e-01 7.3406106978207060e+00 3.0238408889926284e+01 2 2 0
702 444 1 4.1499999999999998e-01 1.0065344710870587e+01 4.0866883800611129e+00 2.8238049607175515e+01 1 3 0
6040 444 2 -8.2999999999999996e-01 1.0941891849131689e+01 2.4782395732800659e+00 2.5390977473125908e+01 -4 5 0
4364 444 1 4.1499999999999998e-01 8.8891898205983955e-01 6.5985600282832531e+00 3.4596265842367686e+01 -1 4 0
2871 444 1 4.1499999999999998e-01 5.9510272344728599e-01 3.0750984134517294e+00 3.7125615899855710e+01 -1 -2 0
2457 444 1 4.1499999999999998e-01 1.9313850952782943e+00 4.8091555216823395e-01 3.7575491571218571e+01 -3 -1 0
5451 444 1 4.1499999999999998e-01 1.5352387216094798e+00 7.2178552736764834e+00 3.8260996074766361e+01 2 -2 0
4415 444 1 4.1499999999999998e-01 8.5173621310094241e+00 9.7868632858359406e-01 3.7127538137170333e+01 -2 0 0
4029 444 1 4.1499999999999998e-01 1.0335635999795930e+01 6.2994206908910417e+00 3.7033272377644209e+01 0 -2 0