LAMMPS data file via write_data, version 11 Aug 2017, timestep = 500000

7656 atoms
7 atom types
4560 bonds
5 bond types
2910 angles
3 angle types
1050 dihedrals
2 dihedral types

0.0000000000000000e+00 4.5679949999999998e+01 xlo xhi
0.0000000000000000e+00 4.6885919999999999e+01 ylo yhi
0.0000000000000000e+00 6.5000000000000000e+01 zlo zhi

Masses

1 1.0079
2 15.9994
3 22.9898
4 15.9994
5 12.011
6 1.0079
7 107.868

Angle Coeffs # harmonic

1 50 109.471
2 50 104.51
3 55 104.52

Dihedral Coeffs # charmm

1 0.111111 3 0 0
2 0.333333 3 0 0

Atoms # full

6505 444 7 0.0000000000000000e+00 1.6907200000000000e+00 0.0000000000000000e+00 0.0000000000000000e+00 0 0 0
6506 444 7 0.0000000000000000e+00 4.2285000000000004e+00 1.4651900000000000e+00 0.0000000000000000e+00 0 0 0
6507 444 7 -4.8610000000000000e-02 1.6907700000000001e+00 0.0000000000000000e+00 7.1781499999999996e+00 0 0 0
6508 444 7 -4.8610000000000000e-02 4.2285500000000003e+00 1.4651900000000000e+00 7.1781499999999996e+00 0 0 0
6509 444 7 0.0000000000000000e+00 2.5366499999999998e+00 1.4651900000000000e+00 2.3926400000000001e+00 0 0 0
6510 444 7 0.0000000000000000e+00 5.0744199999999999e+00 0.0000000000000000e+00 2.3926400000000001e+00 0 0 0
6511 444 7 0.0000000000000000e+00 8.4509000000000001e-01 1.4651900000000000e+00 4.7824200000000001e+00 0 0 0
6512 444 7 0.0000000000000000e+00 3.3828600000000000e+00 0.0000000000000000e+00 4.7824499999999999e+00 0 0 0
6513 444 7 0.0000000000000000e+00 1.6907200000000000e+00 2.9303699999999999e+00 0.0000000000000000e+00 0 0 0
6514 444 7 0.0000000000000000e+00 4.2285000000000004e+00 4.3955599999999997e+00 0.0000000000000000e+00 0 0 0
6515 444 7 -4.8610000000000000e-02 1.6907700000000001e+00 2.9303699999999999e+00 7.1781899999999998e+00 0 0 0
6516 444 7 -4.8610000000000000e-02 4.2285500000000003e+00 4.3955599999999997e+00 7.1781600000000001e+00 0 0 0
6517 444 7 0.0000000000000000e+00 2.5366499999999998e+00 4.3955599999999997e+00 2.3926400000000001e+00 0 0 0
6518 444 7 0.0000000000000000e+00 5.0744199999999999e+00 2.9303699999999999e+00 2.3926400000000001e+00 0 0 0
6519 444 7 0.0000000000000000e+00 8.4509000000000001e-01 4.3955599999999997e+00 4.7824499999999999e+00 0 0 0
6520 444 7 0.0000000000000000e+00 3.3828700000000000e+00 2.9303699999999999e+00 4.7824400000000002e+00 0 0 0
4324 444 2 -8.2999999999999996e-01 3.0240684254672656e+00 1.6205113571045464e+00 1.2522365173027728e+01 -1 2 0
4717 444 2 -8.2999999999999996e-01 4.1738029870179050e+00 2.4717023576271191e+00 9.9564310476913480e+00 3 -1 0
4326 444 1 4.1499999999999998e-01 3.5143312394374275e+00 1.7339700661616961e+00 1.1708115876825627e+01 -1 2 0
4593 444 1 4.1499999999999998e-01 4.8772576987909204e+00 4.8179534316771688e-01 1.3927726470678163e+01 1 3 0
1338 444 1 4.1499999999999998e-01 8.0508944375014968e-01 1.6889832461993568e+00 1.4539293700966683e+01 3 -1 0
4325 444 1 4.1499999999999998e-01 3.0040696932560533e+00 6.7354035526059575e-01 1.2660490381935348e+01 -1 2 0
2623 444 2 -8.2999999999999996e-01 2.4075325138208561e-01 8.2658157618545436e-01 1.0307242010748119e+01 -2 -2 0
1336 444 2 -8.2999999999999996e-01 1.6615315223943494e+00 1.8577356071608584e+00 1.4932055379737678e+01 3 -1 0
6306 444 1 4.1499999999999998e-01 4.4694062051080330e+00 4.3329991815347119e-01 1.6241404969813257e+01 1 0 0
2624 444 1 4.1499999999999998e-01 9.6446584999833118e-01 2.0821537803457499e-01 1.0407716324640237e+01 -2 -2 0
2625 444 1 4.1499999999999998e-01 6.5347989959487973e-01 1.6293604770893111e+00 9.9887542120549799e+00 -2 -2 0
5911 444 2 -8.2999999999999996e-01 4.5441144007621492e+00 5.3115232564191732e+00 1.4887267578796592e+01 4 1 0
1337 444 1 4.1499999999999998e-01 2.2436983524795422e+00 2.0010782150475599e+00 1.4185886718354347e+01 3 -1 0
743 444 1 4.1499999999999998e-01 1.3032379096176661e+00 3.8021908763770176e+00 1.5446600397941131e+01 -3 0 0
744 444 1 4.1499999999999998e-01 1.9336987814968958e+00 5.0358218124178133e+00 1.4836216334910528e+01 -3 0 0
4718 444 1 4.1499999999999998e-01 4.8469331298076943e+00 1.7912829777741273e+00 9.9438588070927896e+00 3 -1 0
525 444 1 4.1499999999999998e-01 1.9649931269030836e+00 4.3942653588545362e+00 1.0227041685668858e+01 -5 1 0
524 444 1 4.1499999999999998e-01 2.4426943856081218e+00 2.9630162640426154e+00 1.0350419281966603e+01 -5 1 0
4719 444 1 4.1499999999999998e-01 4.0138034866859140e+00 2.6680812738535891e+00 9.0333560751393591e+00 3 -1 0
523 444 2 -8.2999999999999996e-01 1.6487424611451118e+00 3.4919542287269159e+00 1.0272337580857096e+01 -5 1 0
2158 444 2 -8.2999999999999996e-01 3.0593876701181566e+00 5.7288281957597045e+00 1.0175545067621842e+01 4 3 0
4591 444 2 -8.2999999999999996e-01 5.2502796652849488e+00 1.0156740058116087e+00 1.4629197147321481e+01 1 3 0
5913 444 1 4.1499999999999998e-01 5.3696563120348761e+00 5.2214185005265925e+00 1.4411248918946379e+01 4 1 0
742 444 2 -8.2999999999999996e-01 1.2166257797820572e+00 4.7545328689761224e+00 1.5404472055647371e+01 -3 0 0
4478 444 1 4.1499999999999998e-01 3.8401100157462960e+00 2.9344135378295726e+00 1.5944917404454994e+01 -2 1 0
3839 444 1 4.1499999999999998e-01 5.4844304289972765e-02 4.9486152683724791e+00 1.0433204010691215e+01 2 2 0
2639 444 1 4.1499999999999998e-01 1.1137726195030938e-01 2.1538031875670907e+00 1.2236300415611888e+01 3 1 0
934 444 2 -8.2999999999999996e-01 2.5790558943586959e+00 5.6834010277867195e+00 1.3429252491969928e+01 4 2 0
1078 444 2 -8.2999999999999996e-01 5.6555969577239793e+00 2.1870487905759947e-01 1.0095684694445382e+01 0 -3 0
936 444 1 4.1499999999999998e-01 2.9150447429844411e+00 5.4350383460255243e+00 1.2568055970469244e+01 4 2 0
5912 444 1 4.1499999999999998e-01 3.9197749237065618e+00 5.6171548759167234e+00 1.4229222826709201e+01 4 1 0
6225 444 1 4.1499999999999998e-01 5.5257512127885065e+00 3.9500437265835098e+00 1.0908086757414834e+01 1 1 0
3085 444 2 -8.2999999999999996e-01 1.2877704076709708e+00 6.2794092052807615e-02 1.6894186276864538e+01 0 3 0
3087 444 1 4.1499999999999998e-01 6.1967100013171594e-01 1.5907858766030383e-01 1.7572864665277677e+01 0 3 0
3086 444 1 4.1499999999999998e-01 1.4906946074362624e+00 9.5963581483924953e-01 1.6628237040488919e+01 0 3 0
5767 444 2 -8.2999999999999996e-01 4.5014690607866177e+00 5.0498070170672875e+00 2.3411061773391058e+01 1 3 0
6093 444 1 4.1499999999999998e-01 4.9929259476727683e+00 4.1343921450336989e+00 1.8527648654314174e+01 -1 2 0
5768 444 1 4.1499999999999998e-01 5.0021063720723165e+00 5.5893124679113058e+00 2.2799074896656670e+01 1 3 0
6372 444 1 4.1499999999999998e-01 8.5414506916431565e-01 5.2954595115643555e+00 1.7016029223707609e+01 3 -2 0
2306 444 1 4.1499999999999998e-01 4.1979862652214592e+00 1.3635625960067099e+00 2.0470454053107215e+01 -3 3 0
1940 444 1 4.1499999999999998e-01 2.7066646592417203e+00 2.2530607208729490e+00 1.8987355773291590e+01 -1 -1 0
5769 444 1 4.1499999999999998e-01 3.6935321909491141e+00 4.8415643842594864e+00 2.2941908497441428e+01 1 3 0
1941 444 1 4.1499999999999998e-01 2.6460262361192699e+00 2.9095353728973530e+00 1.7624542860130795e+01 -1 -1 0
1939 444 2 -8.2999999999999996e-01 2.1336516430659733e+00 2.3739241439500662e+00 1.8230203221228741e+01 -1 -1 0
5869 444 2 -8.2999999999999996e-01 2.1633562409427611e+00 4.7698643202760254e+00 2.2359346024402971e+01 -2 2 0
4479 444 1 4.1499999999999998e-01 4.3394485152160351e+00 4.2800533037465822e+00 1.6426383348575897e+01 -2 1 0
2307 444 1 4.1499999999999998e-01 4.3291312350431648e+00 2.8700724953934298e+00 2.0398872662514947e+01 -3 3 0
4701 444 1 4.1499999999999998e-01 1.6284937949267648e+00 1.0642028198906031e+00 2.2197490412613131e+01 -2 4 0
5871 444 1 4.1499999999999998e-01 1.3775028501957070e+00 4.2511124844669901e+00 2.2531284884322741e+01 -2 2 0
2305 444 2 -8.2999999999999996e-01 3.6970060915255298e+00 2.1593392594080143e+00 2.0291595522257879e+01 -3 3 0
4277 444 1 4.1499999999999998e-01 1.8684722427692535e+00 5.1977073742383402e+00 1.8961575647415945e+01 7 -2 0
4699 444 2 -8.2999999999999996e-01 1.1746360121292310e+00 1.6704010385737487e+00 2.1612024736876922e+01 -2 4 0
4276 444 2 -8.2999999999999996e-01 2.3526250568670548e+00 5.4797642330527774e+00 1.9737637558780591e+01 7 -2 0
5870 444 1 4.1499999999999998e-01 2.1267308424443514e+00 4.9572878223716401e+00 2.1421388519829712e+01 -2 2 0
6370 444 2 -8.2999999999999996e-01 4.1009657508975561e-01 5.5587112413605855e+00 1.7822100753844385e+01 3 -2 0
4477 444 2 -8.2999999999999996e-01 3.9949669859887229e+00 3.4439712147727968e+00 1.6740279950692599e+01 -2 1 0
4406 444 1 4.1499999999999998e-01 3.1457699597926014e-01 2.2500147481343444e+00 1.8512088455923287e+01 1 -1 0
4700 444 1 4.1499999999999998e-01 1.8763434394752496e+00 2.1195340165565151e+00 2.1140730233027547e+01 -2 4 0
4322 444 1 4.1499999999999998e-01 5.6077428243813019e+00 4.0024389495402435e+00 2.4151879807289788e+01 1 3 0
5937 444 1 4.1499999999999998e-01 3.7354545193139971e-01 2.4519048793217899e+00 2.3163024295743764e+01 2 0 0
6091 444 2 -8.2999999999999996e-01 5.5909372031665487e+00 3.8041775544888017e+00 1.9198150631571483e+01 -1 2 0
5770 444 2 -8.2999999999999996e-01 2.4253659776034353e+00 2.5429414055337402e-02 2.3189509876587664e+01 4 2 0
6172 444 2 -8.2999999999999996e-01 1.2399673607135506e+00 3.2209867229043980e+00 2.6130058588355119e+01 0 2 0
6152 444 1 4.1499999999999998e-01 5.0363847552834322e+00 2.1818166643760915e+00 2.7544574821219882e+01 2 -2 0
6173 444 1 4.1499999999999998e-01 1.8455218430277418e+00 3.9520748843821183e+00 2.6007397798897049e+01 0 2 0
1358 444 1 4.1499999999999998e-01 2.7810016566170743e+00 7.9758755265370196e-01 2.4777441388668606e+01 -2 0 0
1357 444 2 -8.2999999999999996e-01 2.7037922210793539e+00 1.1222425918003944e+00 2.5674586605020430e+01 -2 0 0
1359 444 1 4.1499999999999998e-01 2.1733406399534614e+00 1.9153287371695158e+00 2.5597988501673878e+01 -2 0 0
3707 444 1 4.1499999999999998e-01 5.4354399430263944e+00 4.3650918033810067e+00 2.7328551791637029e+01 1 2 0
6153 444 1 4.1499999999999998e-01 3.7767221124710151e+00 1.4727338222630248e+00 2.7094745183683603e+01 2 -2 0
4870 444 2 -8.2999999999999996e-01 3.0825210119668922e+00 5.3587467188915801e+00 2.5665754600051606e+01 2 3 0
4871 444 1 4.1499999999999998e-01 3.7668687337139621e+00 5.4556410991211619e+00 2.5003552089255848e+01 2 3 0
4215 444 1 4.1499999999999998e-01 1.2516637711519154e+00 8.3069612623923067e-02 3.0619899865611671e+01 2 -2 0
6151 444 2 -8.2999999999999996e-01 4.3887531561842312e+00 1.5364461699343726e+00 2.7827950854422895e+01 2 -2 0
4396 444 2 -8.2999999999999996e-01 2.2313337349807200e-01 7.9470579463974556e-01 2.7736125309812770e+01 -2 0 0
4213 444 2 -8.2999999999999996e-01 7.3237730722794880e-01 7.2153553709989804e-01 3.1108709336208008e+01 2 -2 0
4214 444 1 4.1499999999999998e-01 3.2094875906428283e-01 1.2626465988955373e+00 3.0434797464526582e+01 2 -2 0
6174 444 1 4.1499999999999998e-01 6.7875179709016376e-01 3.2415743670651924e+00 2.5354916633922969e+01 0 2 0
5843 444 1 4.1499999999999998e-01 4.8532464179139092e+00 8.1168966485218666e-02 2.8436193238383961e+01 3 2 0
4397 444 1 4.1499999999999998e-01 7.9874720436430846e-01 1.5041108084084915e+00 2.7450388738537729e+01 -2 0 0
3749 444 1 4.1499999999999998e-01 9.3557186834309680e-01 5.7550986889648099e+00 3.2352339702263379e+01 -1 -3 0
3748 444 2 -8.2999999999999996e-01 2.4219575356631240e-01 5.4653497062890066e+00 3.2945220213791892e+01 -1 -3 0
4300 444 2 -8.2999999999999996e-01 3.5112896716424380e-01 9.1238854371114286e-01 3.5317347410723094e+01 -4 -1 0
263 444 5 1.4000000000000001e-01 6.1500805131517411e-01 5.2152847669744151e+00 3.7393048915699907e+01 1 0 0
1866 444 1 4.1499999999999998e-01 4.6859815673034593e+00 9.7413258951901915e-01 3.2517296847259225e+01 -2 -1 0
2807 444 1 4.1499999999999998e-01 1.1913139522239971e+00 1.7756900469584677e-01 3.2642161945848500e+01 2 -3 0
1864 444 2 -8.2999999999999996e-01 5.1106316922436346e+00 1.5886981015042341e+00 3.3115806111673919e+01 -2 -1 0
3233 444 1 4.1499999999999998e-01 5.1158045579888354e+00 3.6685884428179266e-01 3.4169859796780912e+01 -1 2 0
1827 444 1 4.1499999999999998e-01 4.9690419257515872e+00 4.9485921627244700e+00 3.3938746275513580e+01 -3 3 0
5002 444 2 -8.2999999999999996e-01 5.5059005654881492e+00 6.0770078553141249e-01 3.8051632654875874e+01 2 4 0
279 444 6 2.9999999999999999e-02 1.6139118633973406e+00 5.3252630674103445e+00 3.6947751933479147e+01 1 0 0
4302 444 1 4.1499999999999998e-01 6.5933099321645816e-01 7.4416704531803890e-01 3.6207822226202723e+01 -4 -1 0
3100 444 2 -8.2999999999999996e-01 4.6639665880324319e+00 3.7948616972565077e+00 3.8383501794583623e+01 -2 0 0
4301 444 1 4.1499999999999998e-01 1.0496633014532435e+00 5.7845267445395465e-01 3.4754524171078174e+01 -4 -1 0
3021 444 1 4.1499999999999998e-01 3.0535766257233594e+00 1.6828306470077703e+00 3.6262273044293984e+01 -3 1 0
1826 444 1 4.1499999999999998e-01 4.0079873846952720e+00 4.2318572714138094e+00 3.4863170744309173e+01 -3 3 0
4821 444 1 4.1499999999999998e-01 3.8681230076195008e+00 2.0370994390081414e+00 3.4200194502885751e+01 -4 0 0
3019 444 2 -8.2999999999999996e-01 3.1375970914481983e+00 1.7806129248492470e+00 3.7210751530083797e+01 -3 1 0
282 444 6 2.9999999999999999e-02 2.2352176564213574e-01 3.8781049983971889e+00 3.5757423427125097e+01 1 0 0
3102 444 1 4.1499999999999998e-01 4.0350604328612327e+00 3.4081215616946907e+00 3.7774287913405679e+01 -2 0 0
4763 444 1 4.1499999999999998e-01 5.3753174426275141e+00 5.1493152456090296e+00 3.7714633361397091e+01 -6 2 0
3020 444 1 4.1499999999999998e-01 2.4285766263191610e+00 1.2477282447129385e+00 3.7570690442726459e+01 -3 1 0
4820 444 1 4.1499999999999998e-01 2.3572973098786552e+00 2.1022823795284458e+00 3.4129113816423221e+01 -4 0 0
3101 444 1 4.1499999999999998e-01 5.3417690069007371e+00 3.1266522880289678e+00 3.8485050045009693e+01 -2 0 0
278 444 6 2.9999999999999999e-02 8.5672730112931095e-01 4.8029269089093134e+00 3.8392799577550178e+01 1 0 0
4819 444 2 -8.2999999999999996e-01 3.1130830336951316e+00 2.5054294413015548e+00 3.4556305362487066e+01 -4 0 0
5004 444 1 4.1499999999999998e-01 4.6305560492200213e+00 9.9278206886128828e-01 3.8093064180983738e+01 2 4 0
1825 444 2 -8.2999999999999996e-01 4.1732413294511677e+00 5.0812053600465683e+00 3.4453864917543648e+01 -3 3 0
6521 444 7 0.0000000000000000e+00 1.6907200000000000e+00 5.8607399999999998e+00 0.0000000000000000e+00 0 0 0
6522 444 7 0.0000000000000000e+00 4.2285000000000004e+00 7.3259299999999996e+00 0.0000000000000000e+00 0 0 0
6523 444 7 -4.8610000000000000e-02 1.6907700000000001e+00 5.8607399999999998e+00 7.1781499999999996e+00 0 0 0
6524 444 7 -4.8610000000000000e-02 4.2285500000000003e+00 7.3259299999999996e+00 7.1781499999999996e+00 0 0 0
6525 444 7 0.0000000000000000e+00 2.5366499999999998e+00 7.3259299999999996e+00 2.3926400000000001e+00 0 0 0
6526 444 7 0.0000000000000000e+00 5.0744199999999999e+00 5.8607399999999998e+00 2.3926400000000001e+00 0 0 0
6527 444 7 0.0000000000000000e+00 8.4509000000000001e-01 7.3259299999999996e+00 4.7824200000000001e+00 0 0 0
6528 444 7 0.0000000000000000e+00 3.3828600000000000e+00 5.8607399999999998e+00 4.7824499999999999e+00 0 0 0
6529 444 7 0.0000000000000000e+00 1.6907200000000000e+00 8.7911099999999998e+00 0.0000000000000000e+00 0 0 0
6530 444 7 0.0000000000000000e+00 4.2285000000000004e+00 1.0256300000000000e+01 0.0000000000000000e+00 0 0 0
6531 444 7 -4.8610000000000000e-02 1.6907700000000001e+00 8.7911099999999998e+00 7.1781899999999998e+00 0 0 0
6532 444 7 -4.8610000000000000e-02 4.2285500000000003e+00 1.0256300000000000e+01 7.1781600000000001e+00 0 0 0
6533 444 7 0.0000000000000000e+00 2.5366499999999998e+00 1.0256300000000000e+01 2.3926400000000001e+00 0 0 0
6534 444 7 0.0000000000000000e+00 5.0744199999999999e+00 8.7911099999999998e+00 2.3926400000000001e+00 0 0 0
6535 444 7 0.0000000000000000e+00 8.4509000000000001e-01 1.0256300000000000e+01 4.7824499999999999e+00 0 0 0
6536 444 7 0.0000000000000000e+00 3.3828700000000000e+00 8.7911099999999998e+00 4.7824400000000002e+00 0 0 0
581 444 1 4.1499999999999998e-01 3.4788454898930761e+00 8.9616545864227906e+00 9.8455365622743471e+00 3 -1 0
582 444 1 4.1499999999999998e-01 3.5360835673179345e+00 8.5573642929649090e+00 1.1303332255919958e+01 3 -1 0
3856 444 2 -8.2999999999999996e-01 1.2350343292491113e-01 7.4249566935465188e+00 1.3223957988968538e+01 2 0 0
580 444 2 -8.2999999999999996e-01 3.1538274600862395e+00 8.3059902828132639e+00 1.0462545004766314e+01 3 -1 0
3858 444 1 4.1499999999999998e-01 3.2054462282480173e-01 8.1020652915056584e+00 1.3871206439287578e+01 2 0 0
5369 444 1 4.1499999999999998e-01 1.6112050518851961e+00 9.5913480941241840e+00 1.4858809975170349e+01 0 2 0
5368 444 2 -8.2999999999999996e-01 2.1239004487627988e+00 9.9290087092903896e+00 1.4124398465182173e+01 0 2 0
2505 444 1 4.1499999999999998e-01 4.5354729339986166e+00 9.6147967037334343e+00 1.2225397443782720e+01 -1 2 0
2504 444 1 4.1499999999999998e-01 3.3948860931649159e+00 9.2201855251430942e+00 1.3139312220835983e+01 -1 2 0
2503 444 2 -8.2999999999999996e-01 4.2771638579017459e+00 8.9602286285899027e+00 1.2874280735608103e+01 -1 2 0
5370 444 1 4.1499999999999998e-01 1.6671208308301673e+00 1.0727508285559718e+01 1.3859856342842461e+01 0 2 0
3951 444 1 4.1499999999999998e-01 1.2326033701419894e+00 8.3008100440723531e+00 1.0420545112283950e+01 3 3 0
2159 444 1 4.1499999999999998e-01 3.0955771947772011e+00 6.5929215586643171e+00 1.0585746034248281e+01 4 3 0
3857 444 1 4.1499999999999998e-01 2.3932935785182646e-01 7.8596382842138937e+00 1.2379050814358786e+01 2 0 0
3840 444 1 4.1499999999999998e-01 9.2298285589303558e-02 6.4492984740451611e+00 1.0629270831422597e+01 2 2 0
53 444 6 2.9999999999999999e-02 4.2438853963961281e+00 7.6648115950563032e+00 1.6222490826283291e+01 0 1 0
5857 444 2 -8.2999999999999996e-01 7.1577642990306101e-01 8.5598525332590025e+00 1.6248805673494594e+01 1 -1 0
55 444 6 2.9999999999999999e-02 4.3834840156746706e+00 1.0763489061926627e+01 1.5831940648314559e+01 0 1 0
3949 444 2 -8.2999999999999996e-01 5.0446507173332422e-01 8.5328116443696249e+00 1.0996932597657464e+01 3 3 0
42 444 5 1.4000000000000001e-01 5.2100027956852077e+00 8.1639141824986847e+00 1.6214210735044556e+01 0 1 0
1706 444 1 4.1499999999999998e-01 5.1077536336846228e+00 7.6117732478131970e+00 1.2122873011016937e+01 -4 1 0
935 444 1 4.1499999999999998e-01 1.8496760740945632e+00 6.2740243041005970e+00 1.3241099409553591e+01 4 2 0
52 444 6 2.9999999999999999e-02 5.3870745692356570e+00 8.4388707597923478e+00 1.5261695448674059e+01 0 1 0
3570 444 1 4.1499999999999998e-01 5.0447893182575827e+00 1.1148932665061047e+01 1.0124610437279589e+01 2 1 0
3568 444 2 -8.2999999999999996e-01 4.9175305808995775e+00 1.0243627456412042e+01 1.0408266298434484e+01 2 1 0
3950 444 1 4.1499999999999998e-01 3.3382755705056832e-01 9.4556315304693772e+00 1.0808468712744343e+01 3 3 0
2160 444 1 4.1499999999999998e-01 3.1018042282064084e+00 5.9071931208642274e+00 9.2360672147840077e+00 4 3 0
45 444 5 1.4000000000000001e-01 4.5947190281059420e+00 1.1309352020137773e+01 1.7964444914181367e+01 0 1 0
43 444 5 1.4000000000000001e-01 4.2212781950799290e+00 1.0267718577242986e+01 1.6864291167389617e+01 0 1 0
2754 444 1 4.1499999999999998e-01 3.0093095546033357e+00 6.7110039106379729e+00 2.2065414276475046e+01 1 -2 0
6271 444 2 -8.2999999999999996e-01 2.5830067716004139e+00 8.9748530898433998e+00 2.0132189481243550e+01 1 -5 0
6273 444 1 4.1499999999999998e-01 1.7523957502041627e+00 8.8373710347548222e+00 1.9676760211696784e+01 1 -5 0
2752 444 2 -8.2999999999999996e-01 3.1128233747504925e+00 7.5782115686475908e+00 2.2457163846267875e+01 1 -2 0
4888 444 2 -8.2999999999999996e-01 5.1734175271433291e-01 7.9154307228893730e+00 1.9259918132173780e+01 0 -3 0
6272 444 1 4.1499999999999998e-01 2.6105939489860295e+00 9.9164619819938853e+00 2.0302023042807871e+01 1 -5 0
2753 444 1 4.1499999999999998e-01 2.8864587480849058e+00 8.1875350224941918e+00 2.1754514179404318e+01 1 -2 0
2891 444 1 4.1499999999999998e-01 3.7610422228700968e+00 7.9926732870673405e+00 1.9549095734146373e+01 -5 -1 0
3659 444 1 4.1499999999999998e-01 2.7073921470289366e+00 9.4409439077524322e+00 2.3986899102166916e+01 1 1 0
2890 444 2 -8.2999999999999996e-01 4.3481549377879718e+00 7.3528012898623905e+00 1.9146486420868509e+01 -5 -1 0
5859 444 1 4.1499999999999998e-01 9.1621297649047884e-01 7.9013006789524063e+00 1.6913912166906158e+01 1 -1 0
2892 444 1 4.1499999999999998e-01 4.9620327928717129e+00 7.8792621065469968e+00 1.8634407539556243e+01 -5 -1 0
54 444 6 2.9999999999999999e-02 3.2447941592204299e+00 9.8698946864574300e+00 1.6983957773846257e+01 0 1 0
4929 444 1 4.1499999999999998e-01 1.2517168769956721e+00 6.3824396272565176e+00 2.3236367695889101e+01 -4 -1 0
3658 444 2 -8.2999999999999996e-01 3.4591773628428699e+00 9.9706406246014527e+00 2.4252365614918613e+01 1 1 0
5049 444 1 4.1499999999999998e-01 5.1281314266557301e+00 6.2262971493820842e+00 2.0159275517252187e+01 -1 3 0
4927 444 2 -8.2999999999999996e-01 5.1259321630171184e-01 6.6128709822781238e+00 2.3799244399910478e+01 -4 -1 0
3660 444 1 4.1499999999999998e-01 4.2201727499600539e+00 9.4792645080707700e+00 2.3943063759133125e+01 1 1 0
37 444 4 -4.0000000000000002e-01 5.1904168971481193e+00 9.2392908814060828e+00 1.7121346630699769e+01 0 1 0
4889 444 1 4.1499999999999998e-01 3.2184443377086275e-01 7.8851557302716548e+00 2.0196452664107738e+01 0 -3 0
59 444 6 2.9999999999999999e-02 4.5392697247805405e+00 1.0758563896929630e+01 1.8950581601564760e+01 0 1 0
4890 444 1 4.1499999999999998e-01 4.1315491442049224e-01 7.0112147504835756e+00 1.8963656785158207e+01 0 -3 0
5858 444 1 4.1499999999999998e-01 2.9157730418639803e-02 9.0978098882031020e+00 1.6642999375692987e+01 1 -1 0
4920 444 1 4.1499999999999998e-01 8.8443763952292323e-02 1.1317917240359206e+01 2.3873610429835157e+01 0 4 0
5617 444 2 -8.2999999999999996e-01 2.3802424566045897e+00 1.1513735820215944e+01 2.0913906421035485e+01 1 2 0
5047 444 2 -8.2999999999999996e-01 5.5971910911432348e+00 5.8856838407018621e+00 2.0920983360059992e+01 -1 3 0
4278 444 1 4.1499999999999998e-01 3.1543420517101848e+00 5.8714431653945400e+00 1.9391126822123155e+01 7 -2 0
4872 444 1 4.1499999999999998e-01 2.6232810340050361e+00 6.1985730272137003e+00 2.5660937112196336e+01 2 3 0
6187 444 2 -8.2999999999999996e-01 3.7518069864447767e+00 1.1022758047306276e+01 3.0420283989106782e+01 -3 -1 0
1463 444 1 4.1499999999999998e-01 1.0824794857024504e-01 9.7529744338367923e+00 2.7233695055870609e+01 3 2 0
1462 444 2 -8.2999999999999996e-01 6.9798199615474538e-02 1.0703660051126640e+01 2.7129051317054486e+01 3 2 0
2541 444 1 4.1499999999999998e-01 6.6737581335258789e-01 7.8912820192668836e+00 2.9999094012536986e+01 5 1 0
5992 444 2 -8.2999999999999996e-01 4.3025545192224328e+00 8.1885145063694029e+00 3.0218734978952853e+01 -6 1 0
2539 444 2 -8.2999999999999996e-01 7.7099007670908204e-01 6.9468194566938708e+00 2.9882956928860796e+01 5 1 0
1251 444 1 4.1499999999999998e-01 1.7267925360390617e+00 1.1323367746537965e+01 2.7863247991700213e+01 2 -1 0
5993 444 1 4.1499999999999998e-01 3.9960635627967167e+00 9.0949769094542745e+00 3.0243667323742905e+01 -6 1 0
844 444 2 -8.2999999999999996e-01 1.9757532006566962e+00 7.7567754165832943e+00 2.5991085633708714e+01 -1 3 0
4928 444 1 4.1499999999999998e-01 9.1574961629050311e-01 6.9700482948124129e+00 2.4590523267435387e+01 -4 -1 0
845 444 1 4.1499999999999998e-01 2.6133955934642170e+00 8.4539035688664104e+00 2.6144892495474888e+01 -1 3 0
754 444 2 -8.2999999999999996e-01 2.8913238621946853e+00 6.6290632214759411e+00 3.1986920146586890e+01 0 1 0
755 444 1 4.1499999999999998e-01 3.5924303378184295e+00 6.0250536541757143e+00 3.2231571022715471e+01 0 1 0
5496 444 1 4.1499999999999998e-01 4.5022690512148360e+00 8.5917534394748749e+00 2.8063503477673169e+01 5 0 0
5994 444 1 4.1499999999999998e-01 3.8291050310005810e+00 7.7554757516720416e+00 3.0929055438715647e+01 -6 1 0
5494 444 2 -8.2999999999999996e-01 4.5850601865813738e+00 8.9859462361098288e+00 2.7195177812191073e+01 5 0 0
846 444 1 4.1499999999999998e-01 1.2399364915067808e+00 7.9740045211700057e+00 2.6563464476545469e+01 -1 3 0
2540 444 1 4.1499999999999998e-01 1.5887937715878342e+00 6.7378105865433406e+00 3.0334337681254322e+01 5 1 0
1464 444 1 4.1499999999999998e-01 1.8780896278992609e-01 1.0846699805525994e+01 2.6189985343813778e+01 3 2 0
6189 444 1 4.1499999999999998e-01 3.0215878575217840e+00 1.1117291093976760e+01 3.1031900829047292e+01 -3 -1 0
3338 444 1 4.1499999999999998e-01 3.5030785757107124e+00 1.1444802909746643e+01 2.5292442312569527e+01 2 3 0
6188 444 1 4.1499999999999998e-01 3.3694596045844936e+00 1.1199892759761353e+01 2.9560827378454412e+01 -3 -1 0
5495 444 1 4.1499999999999998e-01 4.9642931663852314e+00 8.2943715166337313e+00 2.6652832476007177e+01 5 0 0
5256 444 1 4.1499999999999998e-01 3.9920877201849753e-01 1.0104638414949319e+01 2.9437596469112695e+01 1 -3 0
1249 444 2 -8.2999999999999996e-01 2.5804274026358187e+00 1.1416898006776165e+01 2.8286085764252135e+01 2 -1 0
5254 444 2 -8.2999999999999996e-01 3.8125640301556039e-02 9.4637003750725661e+00 3.0050009192512150e+01 1 -3 0
1063 444 2 -8.2999999999999996e-01 2.0204679315909324e+00 1.1441827928588024e+01 3.2815429714283987e+01 0 3 0
1539 444 1 4.1499999999999998e-01 3.8433949220171435e+00 9.2644799573146592e+00 3.3847466791456796e+01 -1 0 0
275 444 6 2.9999999999999999e-02 5.9306314395771853e-01 7.1942388248381963e+00 3.9354940774619529e+01 1 0 0
271 444 6 2.9999999999999999e-02 7.1494995282697232e-02 9.5417547131648845e+00 3.8341667327974555e+01 1 0 0
1595 444 1 4.1499999999999998e-01 3.5185398758797191e+00 1.0427186330176021e+01 3.8684941773400197e+01 -1 0 0
288 444 3 1.0000000000000000e+00 1.4846727307071511e-01 6.8185112214052124e+00 3.5114688109518319e+01 1 0 0
2473 444 2 -8.2999999999999996e-01 4.9264298100887016e+00 9.7274217127721077e+00 3.4965905895459187e+01 6 2 0
5549 444 1 4.1499999999999998e-01 2.9378619020668855e+00 7.7407048047240989e+00 3.4859091403454400e+01 1 -5 0
756 444 1 4.1499999999999998e-01 2.9757352928305787e+00 7.3568581172440588e+00 3.2602892434931327e+01 0 1 0
2475 444 1 4.1499999999999998e-01 5.5155123601643430e+00 1.0404329747271481e+01 3.5299087234591148e+01 6 2 0
273 444 6 2.9999999999999999e-02 5.4371394935474704e-01 9.1222881457895149e+00 3.3522338300015363e+01 1 0 0
5550 444 1 4.1499999999999998e-01 3.1755597766907311e+00 6.2485210246402927e+00 3.4952806071299051e+01 1 -5 0
261 444 5 1.4000000000000001e-01 5.5525242774763350e-01 7.4679203529020572e+00 3.8288759873996071e+01 1 0 0
1596 444 1 4.1499999999999998e-01 3.9337681162236700e+00 9.4154300210818924e+00 3.9731760630121130e+01 -1 0 0
268 444 6 2.9999999999999999e-02 1.3544543743991952e+00 9.2479905979745478e+00 3.5766128308880205e+01 1 0 0
1537 444 2 -8.2999999999999996e-01 3.0309076187012018e+00 9.1334209083995468e+00 3.3358672585665559e+01 -1 0 0
274 444 6 2.9999999999999999e-02 1.5881536960180043e+00 7.6843903136543297e+00 3.8048536165825709e+01 1 0 0
1538 444 1 4.1499999999999998e-01 2.7618381592833563e+00 1.0014751191613172e+01 3.3099654506532325e+01 -1 0 0
1919 444 1 4.1499999999999998e-01 1.5769555900717331e+00 1.1317583880435103e+01 3.9120398527817635e+01 2 -1 0
1594 444 2 -8.2999999999999996e-01 3.1714186662013626e+00 9.7376931851802482e+00 3.9250926006895007e+01 -1 0 0
258 444 5 1.4000000000000001e-01 3.0556319243236962e-01 9.5615961117861925e+00 3.5753511782568495e+01 1 0 0
5548 444 2 -8.2999999999999996e-01 2.5378165563251653e+00 6.9285289891887301e+00 3.5169842085507483e+01 1 -5 0
269 444 6 2.9999999999999999e-02 2.1444328500792872e-01 1.0574973363680899e+01 3.6108927184403917e+01 1 0 0
2474 444 1 4.1499999999999998e-01 5.4385041196553550e+00 8.9199961927625591e+00 3.5011477614418020e+01 6 2 0
6537 444 7 0.0000000000000000e+00 1.6907200000000000e+00 1.1721480000000000e+01 0.0000000000000000e+00 0 0 0
6538 444 7 0.0000000000000000e+00 4.2285000000000004e+00 1.3186669999999999e+01 0.0000000000000000e+00 0 0 0
6539 444 7 -4.8610000000000000e-02 1.6907700000000001e+00 1.1721480000000000e+01 7.1781499999999996e+00 0 0 0
6540 444 7 -4.8610000000000000e-02 4.2285500000000003e+00 1.3186669999999999e+01 7.1781499999999996e+00 0 0 0
6541 444 7 0.0000000000000000e+00 2.5366499999999998e+00 1.3186669999999999e+01 2.3926400000000001e+00 0 0 0
6542 444 7 0.0000000000000000e+00 5.0744199999999999e+00 1.1721480000000000e+01 2.3926400000000001e+00 0 0 0
6543 444 7 0.0000000000000000e+00 8.4509000000000001e-01 1.3186669999999999e+01 4.7824200000000001e+00 0 0 0
6544 444 7 0.0000000000000000e+00 3.3828600000000000e+00 1.1721480000000000e+01 4.7824499999999999e+00 0 0 0
6545 444 7 0.0000000000000000e+00 1.6907200000000000e+00 1.4651850000000000e+01 0.0000000000000000e+00 0 0 0
6547 444 7 -4.8610000000000000e-02 1.6907700000000001e+00 1.4651850000000000e+01 7.1781899999999998e+00 0 0 0
6550 444 7 0.0000000000000000e+00 5.0744199999999999e+00 1.4651850000000000e+01 2.3926400000000001e+00 0 0 0
6552 444 7 0.0000000000000000e+00 3.3828700000000000e+00 1.4651850000000000e+01 4.7824400000000002e+00 0 0 0
6546 444 7 0.0000000000000000e+00 4.2285000000000004e+00 1.6117039999999999e+01 0.0000000000000000e+00 0 0 0
6548 444 7 -4.8610000000000000e-02 4.2285500000000003e+00 1.6117039999999999e+01 7.1781600000000001e+00 0 0 0
6549 444 7 0.0000000000000000e+00 2.5366499999999998e+00 1.6117039999999999e+01 2.3926400000000001e+00 0 0 0
6551 444 7 0.0000000000000000e+00 8.4509000000000001e-01 1.6117039999999999e+01 4.7824499999999999e+00 0 0 0
1240 444 2 -8.2999999999999996e-01 3.7294603587027417e+00 1.6117188037949695e+01 1.0124539501938504e+01 2 2 0
1978 444 2 -8.2999999999999996e-01 4.8528392832111128e-01 1.4649614568935172e+01 1.3482487230123537e+01 -1 -1 0
5483 444 1 4.1499999999999998e-01 2.4647541366138008e+00 1.3599399997579065e+01 1.1443565181664779e+01 0 2 0
5482 444 2 -8.2999999999999996e-01 2.9636098512734770e+00 1.4126489769729023e+01 1.2067706254123928e+01 0 2 0
1980 444 1 4.1499999999999998e-01 1.1644852689899565e+00 1.4841221099079808e+01 1.2835800090159307e+01 -1 -1 0