LAMMPS data file via write_data, version 11 Aug 2017, timestep = 5000000

7872 atoms
7 atom types
4800 bonds
5 bond types
3300 angles
3 angle types
1500 dihedrals
2 dihedral types

0.0000000000000000e+00 4.5679949999999998e+01 xlo xhi
0.0000000000000000e+00 4.6885919999999999e+01 ylo yhi
0.0000000000000000e+00 6.5000000000000000e+01 zlo zhi

Masses

1 1.0079
2 15.9994
3 22.9898
4 15.9994
5 12.011
6 1.0079
7 107.868

Angle Coeffs # harmonic

1 50 109.471
2 50 104.51
3 55 104.52

Dihedral Coeffs # charmm

1 0.111111 3 0 0
2 0.333333 3 0 0

Atoms # full

6721 444 7 0.0000000000000000e+00 1.6907200000000000e+00 0.0000000000000000e+00 0.0000000000000000e+00 0 0 0
6722 444 7 0.0000000000000000e+00 4.2285000000000004e+00 1.4651900000000000e+00 0.0000000000000000e+00 0 0 0
6723 444 7 -6.9440000000000002e-02 1.6907700000000001e+00 0.0000000000000000e+00 7.1781499999999996e+00 0 0 0
6724 444 7 -6.9440000000000002e-02 4.2285500000000003e+00 1.4651900000000000e+00 7.1781499999999996e+00 0 0 0
6725 444 7 0.0000000000000000e+00 2.5366499999999998e+00 1.4651900000000000e+00 2.3926400000000001e+00 0 0 0
6726 444 7 0.0000000000000000e+00 5.0744199999999999e+00 0.0000000000000000e+00 2.3926400000000001e+00 0 0 0
6727 444 7 0.0000000000000000e+00 8.4509000000000001e-01 1.4651900000000000e+00 4.7824200000000001e+00 0 0 0
6728 444 7 0.0000000000000000e+00 3.3828600000000000e+00 0.0000000000000000e+00 4.7824499999999999e+00 0 0 0
6729 444 7 0.0000000000000000e+00 1.6907200000000000e+00 2.9303699999999999e+00 0.0000000000000000e+00 0 0 0
6730 444 7 0.0000000000000000e+00 4.2285000000000004e+00 4.3955599999999997e+00 0.0000000000000000e+00 0 0 0
6731 444 7 -6.9440000000000002e-02 1.6907700000000001e+00 2.9303699999999999e+00 7.1781899999999998e+00 0 0 0
6732 444 7 -6.9440000000000002e-02 4.2285500000000003e+00 4.3955599999999997e+00 7.1781600000000001e+00 0 0 0
6733 444 7 0.0000000000000000e+00 2.5366499999999998e+00 4.3955599999999997e+00 2.3926400000000001e+00 0 0 0
6734 444 7 0.0000000000000000e+00 5.0744199999999999e+00 2.9303699999999999e+00 2.3926400000000001e+00 0 0 0
6735 444 7 0.0000000000000000e+00 8.4509000000000001e-01 4.3955599999999997e+00 4.7824499999999999e+00 0 0 0
6736 444 7 0.0000000000000000e+00 3.3828700000000000e+00 2.9303699999999999e+00 4.7824400000000002e+00 0 0 0
6737 444 7 0.0000000000000000e+00 1.6907200000000000e+00 5.8607399999999998e+00 0.0000000000000000e+00 0 0 0
6738 444 7 0.0000000000000000e+00 4.2285000000000004e+00 7.3259299999999996e+00 0.0000000000000000e+00 0 0 0
6739 444 7 -6.9440000000000002e-02 1.6907700000000001e+00 5.8607399999999998e+00 7.1781499999999996e+00 0 0 0
6740 444 7 -6.9440000000000002e-02 4.2285500000000003e+00 7.3259299999999996e+00 7.1781499999999996e+00 0 0 0
6741 444 7 0.0000000000000000e+00 2.5366499999999998e+00 7.3259299999999996e+00 2.3926400000000001e+00 0 0 0
6742 444 7 0.0000000000000000e+00 5.0744199999999999e+00 5.8607399999999998e+00 2.3926400000000001e+00 0 0 0
6743 444 7 0.0000000000000000e+00 8.4509000000000001e-01 7.3259299999999996e+00 4.7824200000000001e+00 0 0 0
6744 444 7 0.0000000000000000e+00 3.3828600000000000e+00 5.8607399999999998e+00 4.7824499999999999e+00 0 0 0
6745 444 7 0.0000000000000000e+00 1.6907200000000000e+00 8.7911099999999998e+00 0.0000000000000000e+00 0 0 0
6747 444 7 -6.9440000000000002e-02 1.6907700000000001e+00 8.7911099999999998e+00 7.1781899999999998e+00 0 0 0
6750 444 7 0.0000000000000000e+00 5.0744199999999999e+00 8.7911099999999998e+00 2.3926400000000001e+00 0 0 0
6752 444 7 0.0000000000000000e+00 3.3828700000000000e+00 8.7911099999999998e+00 4.7824400000000002e+00 0 0 0
6849 444 7 0.0000000000000000e+00 6.7662699999999996e+00 0.0000000000000000e+00 0.0000000000000000e+00 0 0 0
6850 444 7 0.0000000000000000e+00 9.3040500000000002e+00 1.4651900000000000e+00 0.0000000000000000e+00 0 0 0
6851 444 7 -6.9440000000000002e-02 6.7663200000000003e+00 0.0000000000000000e+00 7.1781499999999996e+00 0 0 0
6852 444 7 -6.9440000000000002e-02 9.3041000000000000e+00 1.4651900000000000e+00 7.1781499999999996e+00 0 0 0
6853 444 7 0.0000000000000000e+00 7.6121999999999996e+00 1.4651900000000000e+00 2.3926400000000001e+00 0 0 0
6854 444 7 0.0000000000000000e+00 1.0149970000000000e+01 0.0000000000000000e+00 2.3926400000000001e+00 0 0 0
6855 444 7 0.0000000000000000e+00 5.9206399999999997e+00 1.4651900000000000e+00 4.7824200000000001e+00 0 0 0
6856 444 7 0.0000000000000000e+00 8.4584100000000007e+00 0.0000000000000000e+00 4.7824499999999999e+00 0 0 0
6857 444 7 0.0000000000000000e+00 6.7662699999999996e+00 2.9303699999999999e+00 0.0000000000000000e+00 0 0 0
6858 444 7 0.0000000000000000e+00 9.3040500000000002e+00 4.3955599999999997e+00 0.0000000000000000e+00 0 0 0
6859 444 7 -6.9440000000000002e-02 6.7663200000000003e+00 2.9303699999999999e+00 7.1781899999999998e+00 0 0 0
6860 444 7 -6.9440000000000002e-02 9.3041000000000000e+00 4.3955599999999997e+00 7.1781600000000001e+00 0 0 0
6861 444 7 0.0000000000000000e+00 7.6121999999999996e+00 4.3955599999999997e+00 2.3926400000000001e+00 0 0 0
6862 444 7 0.0000000000000000e+00 1.0149970000000000e+01 2.9303699999999999e+00 2.3926400000000001e+00 0 0 0
6863 444 7 0.0000000000000000e+00 5.9206399999999997e+00 4.3955599999999997e+00 4.7824499999999999e+00 0 0 0
6864 444 7 0.0000000000000000e+00 8.4584200000000003e+00 2.9303699999999999e+00 4.7824400000000002e+00 0 0 0
6983 444 7 0.0000000000000000e+00 1.0996190000000000e+01 1.4651900000000000e+00 4.7824200000000001e+00 0 0 0
6991 444 7 0.0000000000000000e+00 1.0996190000000000e+01 4.3955599999999997e+00 4.7824499999999999e+00 0 0 0
6865 444 7 0.0000000000000000e+00 6.7662699999999996e+00 5.8607399999999998e+00 0.0000000000000000e+00 0 0 0
6866 444 7 0.0000000000000000e+00 9.3040500000000002e+00 7.3259299999999996e+00 0.0000000000000000e+00 0 0 0
6867 444 7 -6.9440000000000002e-02 6.7663200000000003e+00 5.8607399999999998e+00 7.1781499999999996e+00 0 0 0
6868 444 7 -6.9440000000000002e-02 9.3041000000000000e+00 7.3259299999999996e+00 7.1781499999999996e+00 0 0 0
6869 444 7 0.0000000000000000e+00 7.6121999999999996e+00 7.3259299999999996e+00 2.3926400000000001e+00 0 0 0
6870 444 7 0.0000000000000000e+00 1.0149970000000000e+01 5.8607399999999998e+00 2.3926400000000001e+00 0 0 0
6871 444 7 0.0000000000000000e+00 5.9206399999999997e+00 7.3259299999999996e+00 4.7824200000000001e+00 0 0 0
6872 444 7 0.0000000000000000e+00 8.4584100000000007e+00 5.8607399999999998e+00 4.7824499999999999e+00 0 0 0
6999 444 7 0.0000000000000000e+00 1.0996190000000000e+01 7.3259299999999996e+00 4.7824200000000001e+00 0 0 0
6873 444 7 0.0000000000000000e+00 6.7662699999999996e+00 8.7911099999999998e+00 0.0000000000000000e+00 0 0 0
6875 444 7 -6.9440000000000002e-02 6.7663200000000003e+00 8.7911099999999998e+00 7.1781899999999998e+00 0 0 0
6878 444 7 0.0000000000000000e+00 1.0149970000000000e+01 8.7911099999999998e+00 2.3926400000000001e+00 0 0 0
6880 444 7 0.0000000000000000e+00 8.4584200000000003e+00 8.7911099999999998e+00 4.7824400000000002e+00 0 0 0
1045 444 2 -8.2999999999999996e-01 5.2588352308825579e+00 2.1395338504207375e+00 1.2827076377988249e+01 3 4 0
1046 444 1 4.1499999999999998e-01 6.0512868155252626e+00 2.3390037806767179e+00 1.2328614111676920e+01 3 4 0
1047 444 1 4.1499999999999998e-01 4.5422282861182985e+00 2.3016450287196175e+00 1.2213540296985762e+01 3 4 0
772 444 2 -8.2999999999999996e-01 7.2921448245108795e+00 3.5058396974960186e+00 1.1375519589103355e+01 2 2 0
773 444 1 4.1499999999999998e-01 8.1686376233803166e+00 3.5690318788335116e+00 1.0996046075132140e+01 2 2 0
382 444 6 2.9999999999999999e-02 2.1962162426179170e+00 4.9317788601071655e-01 1.3787734162819707e+01 2 0 0
1164 444 1 4.1499999999999998e-01 7.2864571827567026e+00 3.6690504661504462e+00 1.6249600356292831e+01 -2 -2 0
774 444 1 4.1499999999999998e-01 6.7274867033281920e+00 3.9638317145891535e+00 1.0752914946923534e+01 2 2 0
6088 444 2 -8.2999999999999996e-01 8.3533534322337353e+00 4.8451565771809015e+00 1.3692105461740400e+01 -1 6 0
369 444 5 1.4000000000000001e-01 1.7068973862534471e+00 1.0972652888618599e+00 1.4563862656528253e+01 2 0 0
935 444 1 4.1499999999999998e-01 1.7674021421619308e+00 7.5614070972308758e+00 9.6358684745504348e+00 0 0 0
934 444 2 -8.2999999999999996e-01 1.4159017466952508e+00 7.0351475176728391e+00 1.0354012172313611e+01 0 0 0
1623 444 1 4.1499999999999998e-01 7.2815610374775979e+00 6.7885529200885033e+00 1.0733318931988819e+01 2 -2 0
1622 444 1 4.1499999999999998e-01 7.7655094006769509e+00 5.9295629099510050e+00 9.5844822766364501e+00 2 -2 0
1621 444 2 -8.2999999999999996e-01 8.0528298259258619e+00 6.3244820400999284e+00 1.0407718521026226e+01 2 -2 0
2104 444 2 -8.2999999999999996e-01 3.0908093146093663e+00 2.2589975154232693e+00 1.0714944589167336e+01 1 3 0
6229 444 2 -8.2999999999999996e-01 5.7326398779767356e+00 7.6188290438224930e+00 1.0683220003972837e+01 1 6 0
4301 444 1 4.1499999999999998e-01 2.8988048425390556e+00 6.3856077708516601e+00 1.1917909738815549e+01 4 -5 0
6218 444 1 4.1499999999999998e-01 1.0250203725618414e+01 7.6173527788691127e+00 1.1824100014644459e+01 3 -2 0
936 444 1 4.1499999999999998e-01 6.7746602846381065e-01 7.5454836249234738e+00 1.0686430678005362e+01 0 0 0
1162 444 2 -8.2999999999999996e-01 8.0337516436139715e+00 3.1740569573616253e+00 1.5913796542803912e+01 -2 -2 0
1163 444 1 4.1499999999999998e-01 8.3010764170357021e+00 3.6478557354010972e+00 1.5126215411754901e+01 -2 -2 0
6219 444 1 4.1499999999999998e-01 8.8070962561368571e+00 7.6498532966244062e+00 1.1367723286953854e+01 3 -2 0
6217 444 2 -8.2999999999999996e-01 9.4479741799821184e+00 8.1357457886859041e+00 1.1886776099662944e+01 3 -2 0
5486 444 1 4.1499999999999998e-01 5.3691538723760130e+00 3.7569067040452281e-01 1.5157067319246432e+01 1 7 0
1328 444 1 4.1499999999999998e-01 5.3071861391904536e+00 6.0469356449187535e+00 1.4330569079324237e+01 0 -2 0
1329 444 1 4.1499999999999998e-01 4.4661052584299723e+00 7.1963702731218051e+00 1.3817462525582842e+01 0 -2 0
4068 444 1 4.1499999999999998e-01 9.5116671066602834e+00 3.0684134218235064e+00 9.4528990562950579e+00 1 0 0
4302 444 1 4.1499999999999998e-01 2.8284763718687440e+00 7.8736085852580473e+00 1.2187729379624283e+01 4 -5 0
2105 444 1 4.1499999999999998e-01 2.4108926964471893e+00 2.9050505198316237e+00 1.0906153118170245e+01 1 3 0
4066 444 2 -8.2999999999999996e-01 9.8486590550349913e+00 3.4478846053930101e+00 1.0264484050980116e+01 1 0 0
4364 444 1 4.1499999999999998e-01 4.0829533251738495e+00 3.2233995347624977e-01 1.1256192329324389e+01 -2 -5 0
379 444 6 2.9999999999999999e-02 1.4247051551834360e+00 2.5314170390694910e+00 1.2971279273897458e+01 2 0 0
1327 444 2 -8.2999999999999996e-01 4.7934152575397970e+00 6.7991762292697784e+00 1.4624517625570114e+01 0 -2 0
1516 444 2 -8.2999999999999996e-01 7.9617477206311067e+00 8.1881685146393561e+00 1.5106605110643766e+01 1 -2 0
1518 444 1 4.1499999999999998e-01 8.4948268002546676e+00 7.5619676510043767e+00 1.4616777285910004e+01 1 -2 0
5489 444 1 4.1499999999999998e-01 8.2617455698276370e+00 1.3714611856702510e+00 1.5538507516061353e+01 0 3 0
4067 444 1 4.1499999999999998e-01 1.0764899031380896e+01 3.1726422420393958e+00 1.0295775962500338e+01 1 0 0
6089 444 1 4.1499999999999998e-01 7.7803268101709380e+00 4.3666473187793819e+00 1.3093021250738603e+01 -1 6 0
6230 444 1 4.1499999999999998e-01 5.5155575928560561e+00 7.6551697419222489e+00 9.7516693335007698e+00 1 6 0
361 444 4 -4.0000000000000002e-01 5.5868641454704027e-01 3.0732234257188380e+00 1.4903322252359660e+01 2 0 0
366 444 5 1.4000000000000001e-01 2.4428588702588186e-01 4.4482081879928730e+00 1.4666904635983068e+01 2 0 0
6231 444 1 4.1499999999999998e-01 4.8947861469753065e+00 7.4627787130545338e+00 1.1118974742315372e+01 1 6 0
6655 444 2 -8.2999999999999996e-01 1.5009064178542824e+00 4.1887965541495387e+00 1.0972174285437363e+01 1 5 0
367 444 5 1.4000000000000001e-01 1.6310719849714614e+00 2.5363370616208836e+00 1.4051893376708069e+01 2 0 0
4300 444 2 -8.2999999999999996e-01 3.4181505741283211e+00 7.1215490828997972e+00 1.2241796667332139e+01 4 -5 0
5490 444 1 4.1499999999999998e-01 9.2951561191041314e+00 3.0832646096385419e-01 1.5844615857523141e+01 0 3 0
2106 444 1 4.1499999999999998e-01 3.3254941246949277e+00 2.4208557114040556e+00 9.8011848886444142e+00 1 3 0
1440 444 1 4.1499999999999998e-01 5.1260248222304892e+00 8.0276117054237357e+00 1.5822614103837664e+01 0 -1 0
5485 444 2 -8.2999999999999996e-01 4.9922540308580903e+00 1.2191094788282877e+00 1.5407713327458422e+01 1 7 0
5487 444 1 4.1499999999999998e-01 5.0881146423744168e+00 1.7660190122081181e+00 1.4628012157271312e+01 1 7 0
378 444 6 2.9999999999999999e-02 2.6152374744416567e+00 3.0589597898318757e+00 1.4019835125250248e+01 2 0 0
377 444 6 2.9999999999999999e-02 1.1227423392987896e+00 5.0180789646094563e+00 1.4991105951200728e+01 2 0 0
5488 444 2 -8.2999999999999996e-01 8.6288446438446122e+00 5.5371492312182002e-01 1.5202708272926991e+01 0 3 0
6090 444 1 4.1499999999999998e-01 9.1164396460778541e+00 5.0751274396342323e+00 1.3161968209651855e+01 -1 6 0
6656 444 1 4.1499999999999998e-01 9.5710294153473274e-01 3.6447069270644548e+00 1.0402546114176518e+01 1 5 0
1517 444 1 4.1499999999999998e-01 8.0678788049371502e+00 9.0143040580093690e+00 1.4634938606722507e+01 1 -2 0
383 444 6 2.9999999999999999e-02 2.3172744152524363e+00 1.0313925664189305e+00 1.5432288902746791e+01 2 0 0
2456 444 1 4.1499999999999998e-01 1.0440287771120969e+01 4.7643528181205470e+00 1.1319637607045317e+01 -1 1 0
6657 444 1 4.1499999999999998e-01 1.3953847523987191e+00 5.0760134985588357e+00 1.0628744947516205e+01 1 5 0
5561 444 1 4.1499999999999998e-01 3.6703962471098204e+00 5.5040284307750360e+00 1.5931024839936759e+01 2 0 0
5676 444 1 4.1499999999999998e-01 1.1336991565653380e+01 1.9268767204798840e+00 1.5699943819189031e+01 3 1 0
363 444 4 -4.0000000000000002e-01 3.4979697103572926e-01 6.8463506433639898e-01 1.4825689126395865e+01 2 0 0
5472 444 1 4.1499999999999998e-01 8.0406188309370723e+00 1.1138716993454045e+00 1.0135822458734090e+01 2 2 0
5470 444 2 -8.2999999999999996e-01 8.0477044286715049e+00 2.1837314252894025e-01 1.0473852050016623e+01 2 2 0
1568 444 1 4.1499999999999998e-01 1.1120709779642064e+01 6.3000388105699301e+00 1.3696674698483402e+01 3 3 0
2455 444 2 -8.2999999999999996e-01 1.0789427356382639e+01 5.1758607684226119e+00 1.2110204308028544e+01 -1 1 0
6273 444 1 4.1499999999999998e-01 6.4714510945966399e+00 9.3338490614568048e+00 1.1060145658786629e+01 3 -1 0
376 444 6 2.9999999999999999e-02 4.3530190693246595e-02 4.6457795130761790e+00 1.3626972133529588e+01 2 0 0
4494 444 1 4.1499999999999998e-01 9.9301728977538435e+00 1.8961350251640893e-01 1.1677769032873588e+01 4 -1 0
1438 444 2 -8.2999999999999996e-01 5.3385255580209936e+00 8.6729661636168434e+00 1.6496849193833217e+01 0 -1 0
6597 444 1 4.1499999999999998e-01 1.0422116437831379e+01 3.3221943782077381e+00 2.3269102780188422e+01 -1 2 0
3368 444 1 4.1499999999999998e-01 8.3769618754480266e+00 8.9968023282758636e-01 2.1192186468274510e+01 -3 -3 0
2219 444 1 4.1499999999999998e-01 1.1220677239743431e+01 1.5087484365930348e-01 1.7467701256489754e+01 -1 0 0
2015 444 1 4.1499999999999998e-01 8.5403704344853693e-01 2.6948149239237096e+00 1.6633980404292657e+01 0 -4 0
4274 444 1 4.1499999999999998e-01 5.3943798725583685e+00 4.8131610815755064e+00 1.6641640340048635e+01 2 0 0
3367 444 2 -8.2999999999999996e-01 8.4354067252634337e+00 6.9633540143765194e-01 2.2125710850943953e+01 -3 -3 0
4431 444 1 4.1499999999999998e-01 1.0935591899538226e+01 5.4196209531318162e+00 1.6680352693963446e+01 6 4 0
3143 444 1 4.1499999999999998e-01 1.6315239794555314e+00 7.4652698637880688e-01 1.8566985063187001e+01 -3 5 0
996 444 1 4.1499999999999998e-01 7.1493145854513074e+00 7.4379646774285328e+00 1.6679666523806535e+01 -5 2 0
995 444 1 4.1499999999999998e-01 7.0825716347442027e+00 7.6820655820428305e+00 1.8172266702436730e+01 -5 2 0
3142 444 2 -8.2999999999999996e-01 2.4622826684623198e+00 3.3735074047993441e-01 1.8809155721767311e+01 -3 5 0
4275 444 1 4.1499999999999998e-01 6.6934208036447158e+00 5.4651565934151414e+00 1.7065066732177858e+01 2 0 0
4996 444 2 -8.2999999999999996e-01 7.1166414704472354e+00 2.1569665132042610e+00 1.9678105564395629e+01 3 3 0
4998 444 1 4.1499999999999998e-01 7.5224066977171518e+00 1.3659859939326509e+00 1.9323228751016551e+01 3 3 0
2014 444 2 -8.2999999999999996e-01 7.7532240836598409e-01 2.4264824727230057e+00 1.7549422489130517e+01 0 -4 0
3847 444 2 -8.2999999999999996e-01 2.5099083516290217e+00 7.7841335183818776e+00 1.6948518788808205e+01 -1 3 0
3848 444 1 4.1499999999999998e-01 3.4047557741387560e+00 8.1238305344478530e+00 1.6939233415465424e+01 -1 3 0
2466 444 1 4.1499999999999998e-01 5.6123744801967019e+00 5.7404009671411060e+00 2.2197386110814659e+01 -1 2 0
2000 444 1 4.1499999999999998e-01 5.8540830917494100e+00 1.7067102452357659e+00 2.0870640951806720e+01 0 0 0
1999 444 2 -8.2999999999999996e-01 5.1805305726193049e+00 1.3772339716031676e+00 2.1465623505845212e+01 0 0 0
1237 444 2 -8.2999999999999996e-01 4.3062651995335397e+00 2.0912964969965167e+00 1.7645042591741081e+01 4 2 0
4226 444 1 4.1499999999999998e-01 8.8999353194036743e+00 7.5050720115835237e+00 2.3741867802649654e+01 -3 3 0
5562 444 1 4.1499999999999998e-01 3.3640456750187773e+00 6.2075235649310967e+00 1.7236068556079235e+01 2 0 0
5560 444 2 -8.2999999999999996e-01 3.5390394927974751e+00 5.3425645049808663e+00 1.6865319549937372e+01 2 0 0
4907 444 1 4.1499999999999998e-01 8.9514409459535162e+00 5.3315438574697573e+00 2.0826671028448896e+01 2 4 0
4906 444 2 -8.2999999999999996e-01 9.5114901548303354e+00 4.8420930609156789e+00 2.0224164101636884e+01 2 4 0
4908 444 1 4.1499999999999998e-01 9.2669954144783517e+00 5.1619885900935394e+00 1.9355762548041490e+01 2 4 0
994 444 2 -8.2999999999999996e-01 7.4129518975776696e+00 7.0639007489511565e+00 1.7520382534170427e+01 -5 2 0
3498 444 1 4.1499999999999998e-01 1.8438834301916818e+00 3.4900097191412445e+00 1.8414965391602031e+01 0 2 0
1239 444 1 4.1499999999999998e-01 4.6830236803273282e+00 1.7062207659023267e+00 1.6853840004922329e+01 4 2 0
3380 444 1 4.1499999999999998e-01 5.5349793823491367e-01 5.5131128861555663e+00 2.1505236688619373e+01 2 6 0
3381 444 1 4.1499999999999998e-01 1.5811416837391123e+00 6.5124492399800271e+00 2.1992238241801878e+01 2 6 0
3379 444 2 -8.2999999999999996e-01 8.7981906185906444e-01 5.9375875356167720e+00 2.2298689910455643e+01 2 6 0
2285 444 1 4.1499999999999998e-01 1.0246799056864553e+00 4.8150698561859526e+00 1.9555017755072104e+01 1 2 0
3497 444 1 4.1499999999999998e-01 3.0293747344439304e+00 4.3934012195177408e+00 1.8149656187760677e+01 0 2 0
3496 444 2 -8.2999999999999996e-01 2.4017496369735523e+00 4.1481747655491530e+00 1.8829496263836926e+01 0 2 0
3122 444 1 4.1499999999999998e-01 7.9229648065356706e+00 1.9199035376647151e+00 2.3036163604230445e+01 0 2 0
3123 444 1 4.1499999999999998e-01 8.7175632499458846e+00 2.9048846496393064e+00 2.3867019006582257e+01 0 2 0
3121 444 2 -8.2999999999999996e-01 7.8255736078164650e+00 2.6933285247494472e+00 2.3591645908911939e+01 0 2 0
3048 444 1 4.1499999999999998e-01 6.1075498272016970e+00 7.8523558601270826e+00 2.1788743432995002e+01 -3 3 0
4352 444 1 4.1499999999999998e-01 5.2780449943502390e+00 4.2403786998516892e+00 2.3944110984845675e+01 -3 -1 0
3046 444 2 -8.2999999999999996e-01 6.4345372987211640e+00 7.1301681519114242e+00 2.1252314511497218e+01 -3 3 0
3047 444 1 4.1499999999999998e-01 6.7123831589157721e+00 7.5446327359334546e+00 2.0435459174579329e+01 -3 3 0
2001 444 1 4.1499999999999998e-01 4.5637819557260455e+00 2.1036789988511990e+00 2.1555793474893406e+01 0 0 0
1003 444 2 -8.2999999999999996e-01 8.9959446015907272e+00 5.1106482444160883e-01 1.9250975462103160e+01 -2 0 0
2118 444 1 4.1499999999999998e-01 3.1975402629817129e+00 4.0676888300829006e+00 2.2012213878775167e+01 -1 -4 0
2116 444 2 -8.2999999999999996e-01 3.2063715567999376e+00 3.2902233071487297e+00 2.1453911782344452e+01 -1 -4 0
2117 444 1 4.1499999999999998e-01 2.9533379025047553e+00 3.6129673702573366e+00 2.0589017082151873e+01 -1 -4 0
1238 444 1 4.1499999999999998e-01 5.0522008056704601e+00 2.4813655323636055e+00 1.8100737673299179e+01 4 2 0
286 444 6 2.9999999999999999e-02 1.0629769425051192e+01 7.8793429732927107e+00 1.9482160914195088e+01 0 -1 0
2464 444 2 -8.2999999999999996e-01 4.9269550050211466e+00 5.6276017426085438e+00 2.2855951462425875e+01 -1 2 0
3144 444 1 4.1499999999999998e-01 3.1305380196095407e+00 9.4382471699593429e-01 1.8490007003916727e+01 -3 5 0
2465 444 1 4.1499999999999998e-01 4.2929222057040155e+00 6.3183071568457194e+00 2.2663181446719122e+01 -1 2 0
5491 444 2 -8.2999999999999996e-01 1.6505640999076463e+00 7.9157358381020266e+00 1.9757449040898067e+01 2 -1 0
5493 444 1 4.1499999999999998e-01 1.5897527786534515e+00 7.4785412492707692e+00 1.8908099362112889e+01 2 -1 0
3626 444 1 4.1499999999999998e-01 1.0938880580533747e+01 3.7543088076889264e+00 2.0579499824611847e+01 -2 3 0
4225 444 2 -8.2999999999999996e-01 9.8029478114503590e+00 7.6237666893299325e+00 2.3447399058966454e+01 -3 3 0
5296 444 2 -8.2999999999999996e-01 3.3845089406625068e+00 7.5162332699123287e+00 2.2060272097215226e+01 4 2 0
5492 444 1 4.1499999999999998e-01 1.1074738969880238e+00 8.6983854046195681e+00 1.9663932039195629e+01 2 -1 0
5297 444 1 4.1499999999999998e-01 2.8395803481655171e+00 7.7123608438022613e+00 2.1298156680743357e+01 4 2 0
4997 444 1 4.1499999999999998e-01 7.6781701415180859e+00 2.8709225038390951e+00 1.9376137785730819e+01 3 3 0
4273 444 2 -8.2999999999999996e-01 6.2695479405941903e+00 4.6118761367366332e+00 1.6972997418665202e+01 2 0 0
1554 444 1 4.1499999999999998e-01 8.6819508573093298e+00 5.7936408052271089e+00 1.7467828526293971e+01 4 -4 0
5298 444 1 4.1499999999999998e-01 4.2749316714053576e+00 7.7269589720845033e+00 2.1779247908185770e+01 4 2 0
5712 444 1 4.1499999999999998e-01 5.5053404791725162e+00 4.4373355040789653e-01 2.3226753644404017e+01 -2 1 0
1005 444 1 4.1499999999999998e-01 9.5478952012641667e+00 1.1029305512353673e+00 1.8739822514498080e+01 -2 0 0
1552 444 2 -8.2999999999999996e-01 9.3983591803473967e+00 5.1589491537074075e+00 1.7480414702025723e+01 4 -4 0
1553 444 1 4.1499999999999998e-01 9.0422677368045612e+00 4.3863766252756520e+00 1.7041594586786399e+01 4 -4 0
6606 444 1 4.1499999999999998e-01 1.6782079840702533e+00 2.9433207420878493e+00 2.3736650505197893e+01 1 3 0
287 444 6 2.9999999999999999e-02 1.0388817288765070e+01 8.2254252144050515e+00 1.7768740718102649e+01 0 -1 0
4227 444 1 4.1499999999999998e-01 9.9196715059122162e+00 8.5730002672091850e+00 2.3407857485542625e+01 -3 3 0
2284 444 2 -8.2999999999999996e-01 9.8058473471810431e-02 4.7192962950003086e+00 1.9775090474934292e+01 1 2 0
6595 444 2 -8.2999999999999996e-01 1.0270825233122091e+01 3.2512282712463798e+00 2.4211602970263005e+01 -1 2 0
3849 444 1 4.1499999999999998e-01 1.9595499884341971e+00 8.5537102132180216e+00 1.6803295878181931e+01 -1 3 0
3869 444 1 4.1499999999999998e-01 5.7730798450588434e+00 8.7193850492777063e+00 1.8088973050293326e+01 -2 1 0
267 444 5 1.4000000000000001e-01 1.0461849839818992e+01 8.6967253423091524e+00 1.8741920898723400e+01 0 -1 0
3868 444 2 -8.2999999999999996e-01 6.0900705761524945e+00 8.8410211301388255e+00 1.8983933066252138e+01 -2 1 0
285 444 6 2.9999999999999999e-02 8.8824043136780571e+00 9.1104516942977334e+00 2.0164756214276046e+01 0 -1 0
2016 444 1 4.1499999999999998e-01 2.9612407326049351e-02 1.8264580368758203e+00 1.7560358070434177e+01 0 -4 0
5711 444 1 4.1499999999999998e-01 6.9825041775769625e+00 1.2439057793534770e-01 2.3137856929427858e+01 -2 1 0
3478 444 2 -8.2999999999999996e-01 5.6463834617079831e+00 9.2972022133762202e+00 2.2238080951375935e+01 -1 5 0
6209 444 1 4.1499999999999998e-01 7.4081828475294431e-01 5.7974440968736669e+00 2.5942935220690579e+01 2 -5 0
2375 444 1 4.1499999999999998e-01 1.6713708171967181e+00 8.5745519429341179e+00 3.2229911574721186e+01 1 3 0
3200 444 1 4.1499999999999998e-01 1.7163746178599695e+00 1.2131163845976167e+00 2.4977838290776177e+01 -1 -3 0
4022 444 1 4.1499999999999998e-01 8.8173523157185816e+00 1.1439963886505844e-01 2.9492953676696914e+01 0 2 0
3261 444 1 4.1499999999999998e-01 3.0962229278846474e+00 1.2189201340175100e+00 2.8612030752536178e+01 0 -2 0
6208 444 2 -8.2999999999999996e-01 4.9480203246511723e-01 6.3899539106764429e+00 2.5232555055762262e+01 2 -5 0
4176 444 1 4.1499999999999998e-01 6.5988382360498816e+00 7.8416185451486542e-01 3.0914830245789290e+01 -2 3 0
3260 444 1 4.1499999999999998e-01 4.0540211555164589e+00 1.1384540736456992e+00 2.7442397152382963e+01 0 -2 0
6596 444 1 4.1499999999999998e-01 1.1076125498129478e+01 3.5819808651612459e+00 2.4609505045591767e+01 -1 2 0
6210 444 1 4.1499999999999998e-01 9.2443115878559168e-01 6.0272657533181704e+00 2.4457888573028516e+01 2 -5 0
4351 444 2 -8.2999999999999996e-01 5.6170996959677630e+00 3.8249593198280616e+00 2.4737017334440846e+01 -3 -1 0
4353 444 1 4.1499999999999998e-01 6.3660100543604301e+00 3.3100098892404448e+00 2.4436697111459953e+01 -3 -1 0
3199 444 2 -8.2999999999999996e-01 2.0761024457994766e+00 3.7656386956384530e-01 2.5272809973536322e+01 -1 -3 0
5643 444 1 4.1499999999999998e-01 5.2176437490073191e+00 5.7630832440706525e+00 2.5348206752537653e+01 -3 -5 0
5642 444 1 4.1499999999999998e-01 5.2758287133708492e+00 7.0118633373003281e+00 2.4494357856023147e+01 -3 -5 0
4696 444 2 -8.2999999999999996e-01 7.9321942440984401e+00 9.3502813922725956e+00 2.5564811536371504e+01 0 1 0
4174 444 2 -8.2999999999999996e-01 6.1248171009355161e+00 6.6298337650160688e-01 3.1737540129350791e+01 -2 3 0
2337 444 1 4.1499999999999998e-01 7.9579780246646985e+00 9.1260405837556284e+00 2.8523218223936404e+01 -3 0 0
5822 444 1 4.1499999999999998e-01 1.0344901421207144e+01 6.1599167883598471e-01 3.1064051984353831e+01 2 1 0
1793 444 1 4.1499999999999998e-01 1.0013657226053596e+01 8.7269485489089718e+00 3.1535042922667611e+01 -3 1 0
5879 444 1 4.1499999999999998e-01 3.3807763980837979e+00 1.5996863099397587e+00 3.0811667406750246e+01 5 3 0
1649 444 1 4.1499999999999998e-01 4.4323249631271615e+00 3.6944831870329384e+00 2.5963684064566920e+01 0 4 0
5513 444 1 4.1499999999999998e-01 7.3134991664816624e+00 4.2187976776182605e+00 2.6076835444381018e+01 1 0 0
5880 444 1 4.1499999999999998e-01 4.8133391286024461e+00 1.1105644699071138e+00 3.0791197560361326e+01 5 3 0
5641 444 2 -8.2999999999999996e-01 5.2622676989994703e+00 6.7175493146641498e+00 2.5405086910695065e+01 -3 -5 0
5514 444 1 4.1499999999999998e-01 7.5926143047753394e+00 3.9466230074168376e+00 2.7539678921937501e+01 1 0 0
5512 444 2 -8.2999999999999996e-01 7.9635042633167803e+00 4.3668200173386147e+00 2.6763723123681817e+01 1 0 0
3138 444 1 4.1499999999999998e-01 1.0325795518179547e+01 1.6094014200240607e+00 2.6911417902103263e+01 1 3 0
3136 444 2 -8.2999999999999996e-01 9.8069422225906546e+00 1.1819116705552766e+00 2.6230039921944318e+01 1 3 0
5789 444 1 4.1499999999999998e-01 6.9265606287263033e+00 9.1246010946599370e+00 3.1574005707041014e+01 -2 5 0
3137 444 1 4.1499999999999998e-01 9.8774930603880886e+00 1.7643845537398115e+00 2.5473746055940438e+01 1 3 0
2544 444 1 4.1499999999999998e-01 9.5772906414853427e+00 4.4948532695170096e+00 3.0978910672997699e+01 -2 0 0
5878 444 2 -8.2999999999999996e-01 3.9629694472268584e+00 9.8039477549017828e-01 3.0371484417087899e+01 5 3 0
6605 444 1 4.1499999999999998e-01 8.9050950170766363e-01 2.9944097831593757e+00 2.5028477169016220e+01 1 3 0
6604 444 2 -8.2999999999999996e-01 1.7846878356707807e+00 2.9797464635739610e+00 2.4687211927601183e+01 1 3 0
1767 444 1 4.1499999999999998e-01 5.5325460383079328e+00 2.3547392274304599e-01 2.5916548513144146e+01 4 2 0
4697 444 1 4.1499999999999998e-01 8.4645640488446006e+00 8.5711468451481618e+00 2.5725323766484188e+01 0 1 0
2135 444 1 4.1499999999999998e-01 1.2529550588291847e+00 2.5928048206544299e+00 3.1064586657007251e+01 2 2 0
4912 444 2 -8.2999999999999996e-01 1.0658437871257577e+01 4.2560306629565083e+00 2.8303850322255375e+01 -2 3 0
2504 444 1 4.1499999999999998e-01 4.4734574898938622e+00 8.0283014044103158e+00 2.6509185404745978e+01 -1 2 0
5823 444 1 4.1499999999999998e-01 1.0288082645281758e+01 2.1003763256387740e+00 3.1356060581837571e+01 2 1 0
1765 444 2 -8.2999999999999996e-01 5.9080493849801892e+00 6.7545397704327870e-01 2.6679206268326826e+01 4 2 0
2503 444 2 -8.2999999999999996e-01 4.0956297908274646e+00 8.6226199664078127e+00 2.7157463312263584e+01 -1 2 0
5845 444 2 -8.2999999999999996e-01 9.1678169819781097e-01 5.9982433080133397e+00 2.8504961419429108e+01 3 -2 0
4523 444 1 4.1499999999999998e-01 6.8432756234713139e+00 3.6977000117509742e+00 3.0115604224472222e+01 1 -3 0
5313 444 1 4.1499999999999998e-01 6.7844065425792452e+00 5.3393186737292819e-01 2.8618431378228568e+01 4 3 0
5847 444 1 4.1499999999999998e-01 1.3393351224089112e+00 5.1397883593161833e+00 2.8532082496247988e+01 3 -2 0
5311 444 2 -8.2999999999999996e-01 7.2365348770853428e+00 9.7313021439381275e-01 2.9338790390454250e+01 4 3 0
2134 444 2 -8.2999999999999996e-01 2.0762543307183376e+00 2.4932005823391465e+00 3.1542592050527574e+01 2 2 0
2136 444 1 4.1499999999999998e-01 1.9666200694917009e+00 3.0340587659775173e+00 3.2324694750734537e+01 2 2 0
4834 444 2 -8.2999999999999996e-01 3.0438058624491116e-01 2.4794822105917875e+00 2.7927063641175227e+01 6 -1 0
5846 444 1 4.1499999999999998e-01 1.5709473370846900e+00 6.5991029825158538e+00 2.8861706045986693e+01 3 -2 0
5149 444 2 -8.2999999999999996e-01 2.3709108572975990e+00 3.7866181290264200e+00 2.8704600325074932e+01 -3 3 0
5150 444 1 4.1499999999999998e-01 2.7885111432862186e+00 3.4933531711618349e+00 2.7894762387056897e+01 -3 3 0
6498 444 1 4.1499999999999998e-01 9.6804994416904435e+00 6.8273040911270204e+00 2.5280845253926852e+01 -1 1 0
5151 444 1 4.1499999999999998e-01 3.0977655499919954e+00 3.9336296921183300e+00 2.9309828930126283e+01 -3 3 0
5088 444 1 4.1499999999999998e-01 3.3644955168199018e+00 8.0252853344214277e+00 2.8839855184804936e+01 -1 0 0