LAMMPS data file via write_data, version 11 Aug 2017, timestep = 500000

8016 atoms
7 atom types
4960 bonds
5 bond types
3560 angles
3 angle types
1800 dihedrals
2 dihedral types

0.0000000000000000e+00 4.5679949999999998e+01 xlo xhi
0.0000000000000000e+00 4.6885919999999999e+01 ylo yhi
0.0000000000000000e+00 6.5000000000000000e+01 zlo zhi

Masses

1 1.0079
2 15.9994
3 22.9898
4 15.9994
5 12.011
6 1.0079
7 107.868

Angle Coeffs # harmonic

1 50 109.471
2 50 104.51
3 55 104.52

Dihedral Coeffs # charmm

1 0.111111 3 0 0
2 0.333333 3 0 0

Atoms # full

6865 444 7 0.0000000000000000e+00 1.6907200000000000e+00 0.0000000000000000e+00 0.0000000000000000e+00 0 0 0
6866 444 7 0.0000000000000000e+00 4.2285000000000004e+00 1.4651900000000000e+00 0.0000000000000000e+00 0 0 0
6867 444 7 -8.3330000000000001e-02 1.6907700000000001e+00 0.0000000000000000e+00 7.1781499999999996e+00 0 0 0
6868 444 7 -8.3330000000000001e-02 4.2285500000000003e+00 1.4651900000000000e+00 7.1781499999999996e+00 0 0 0
6869 444 7 0.0000000000000000e+00 2.5366499999999998e+00 1.4651900000000000e+00 2.3926400000000001e+00 0 0 0
6870 444 7 0.0000000000000000e+00 5.0744199999999999e+00 0.0000000000000000e+00 2.3926400000000001e+00 0 0 0
6871 444 7 0.0000000000000000e+00 8.4509000000000001e-01 1.4651900000000000e+00 4.7824200000000001e+00 0 0 0
6872 444 7 0.0000000000000000e+00 3.3828600000000000e+00 0.0000000000000000e+00 4.7824499999999999e+00 0 0 0
6873 444 7 0.0000000000000000e+00 1.6907200000000000e+00 2.9303699999999999e+00 0.0000000000000000e+00 0 0 0
6874 444 7 0.0000000000000000e+00 4.2285000000000004e+00 4.3955599999999997e+00 0.0000000000000000e+00 0 0 0
6875 444 7 -8.3330000000000001e-02 1.6907700000000001e+00 2.9303699999999999e+00 7.1781899999999998e+00 0 0 0
6876 444 7 -8.3330000000000001e-02 4.2285500000000003e+00 4.3955599999999997e+00 7.1781600000000001e+00 0 0 0
6877 444 7 0.0000000000000000e+00 2.5366499999999998e+00 4.3955599999999997e+00 2.3926400000000001e+00 0 0 0
6878 444 7 0.0000000000000000e+00 5.0744199999999999e+00 2.9303699999999999e+00 2.3926400000000001e+00 0 0 0
6879 444 7 0.0000000000000000e+00 8.4509000000000001e-01 4.3955599999999997e+00 4.7824499999999999e+00 0 0 0
6880 444 7 0.0000000000000000e+00 3.3828700000000000e+00 2.9303699999999999e+00 4.7824400000000002e+00 0 0 0
4861 444 2 -8.2999999999999996e-01 2.2668543930922254e+00 3.8240606688976753e+00 1.0362030538093435e+01 1 4 0
4863 444 1 4.1499999999999998e-01 2.3523950681172172e+00 3.8521408457699264e+00 9.4090738184888831e+00 1 4 0
3838 444 2 -8.2999999999999996e-01 4.8559585074371148e+00 5.3473989281738543e+00 1.0732373165789390e+01 1 5 0
4862 444 1 4.1499999999999998e-01 3.0788825893682699e+00 4.2125979716270940e+00 1.0687425026582051e+01 1 4 0
460 444 6 2.9999999999999999e-02 3.8496337781519019e+00 2.9220397090577546e+00 1.5095226763974411e+01 0 0 0
163 444 6 2.9999999999999999e-02 1.2992958439613342e+00 1.7892007530807861e+00 1.3537163842496279e+01 1 1 0
464 444 6 2.9999999999999999e-02 1.8152049907263388e+00 4.3993453874005350e+00 1.4981810321668364e+01 0 0 0
166 444 6 2.9999999999999999e-02 4.1495575027978826e-01 3.3282543704909169e+00 1.2221588607964573e+01 1 1 0
4083 444 1 4.1499999999999998e-01 5.6231265515074567e+00 2.0257701670420079e+00 1.1932478834893374e+01 4 0 0
457 444 6 2.9999999999999999e-02 5.6947755913487583e+00 2.6000225456561976e+00 1.6147369210561678e+01 0 0 0
4206 444 1 4.1499999999999998e-01 1.5343214916049599e+00 2.1884067827820592e+00 1.0314169178387251e+01 1 -1 0
1913 444 1 4.1499999999999998e-01 4.4368785394283972e+00 1.1678052069425997e+00 1.3398400921574343e+01 -7 0 0
4204 444 2 -8.2999999999999996e-01 9.0116688973844095e-01 1.5491864995788409e+00 9.9874500401805015e+00 1 -1 0
1912 444 2 -8.2999999999999996e-01 3.7763115439141521e+00 4.7612615269612441e-01 1.3436667567277393e+01 -7 0 0
444 444 5 1.4000000000000001e-01 3.5744065538178589e+00 3.0468903070595381e+00 1.6151052684685261e+01 0 0 0
446 444 5 1.4000000000000001e-01 1.9860680089112726e+00 4.8391866152417915e+00 1.5962785088962237e+01 0 0 0
162 444 6 2.9999999999999999e-02 3.9896598074110945e-01 6.8697803473884123e-01 1.2340296969746587e+01 1 1 0
160 444 6 2.9999999999999999e-02 9.6811101881254802e-01 5.0973793021071731e-02 1.5420824036913141e+01 1 1 0
4082 444 1 4.1499999999999998e-01 5.5167135843009554e+00 3.4271196238418149e+00 1.2495320887833046e+01 4 0 0
3839 444 1 4.1499999999999998e-01 5.6360380092082663e+00 4.8016611168297247e+00 1.0831762963911393e+01 1 5 0
4334 444 1 4.1499999999999998e-01 5.1988058771878953e-01 4.8044248768345872e+00 1.0268221182133413e+01 4 0 0
4205 444 1 4.1499999999999998e-01 8.9078326768223626e-01 1.6844130645091684e+00 9.0399068778549623e+00 1 -1 0
151 444 5 1.4000000000000001e-01 2.9574353334543718e-01 1.4854924785676407e+00 1.3110939147613280e+01 1 1 0
4081 444 2 -8.2999999999999996e-01 5.2902044038735134e+00 2.5164279150863447e+00 1.2683910599049947e+01 4 0 0
1914 444 1 4.1499999999999998e-01 3.5693463123577516e+00 2.9099113414911326e-01 1.2520630895051827e+01 -7 0 0
5124 444 1 4.1499999999999998e-01 5.6796731421946918e+00 1.5200314455818744e+00 9.3664955383884241e+00 -2 1 0
2157 444 1 4.1499999999999998e-01 3.5384879169199310e+00 2.7798527547503227e-02 9.5867069734866881e+00 8 -2 0
462 444 6 2.9999999999999999e-02 4.8701738944815620e-01 3.5745001584193079e+00 1.9455902043298924e+01 0 0 0
980 444 1 4.1499999999999998e-01 5.4129043863856419e+00 3.7733077933705572e+00 2.3587430354632428e+01 0 -3 0
6680 444 1 4.1499999999999998e-01 2.0138149920567230e+00 8.6516373864106511e-01 2.3233555045014690e+01 1 -3 0
461 444 6 2.9999999999999999e-02 2.9782585263565400e+00 2.1757578052446833e+00 1.6361503531053756e+01 0 0 0
1819 444 2 -8.2999999999999996e-01 2.8016219697470786e+00 3.0416193585789575e-01 1.7882786755149116e+01 2 -1 0
979 444 2 -8.2999999999999996e-01 4.8801872803032138e+00 2.9855848404756666e+00 2.3478174063444186e+01 0 -3 0
456 444 6 2.9999999999999999e-02 4.7219206676099130e+00 2.0849164188515816e+00 1.7596038996952359e+01 0 0 0
442 444 5 1.4000000000000001e-01 4.9280255903971648e+00 2.8944896023998643e+00 1.6866016339976888e+01 0 0 0
436 444 4 -4.0000000000000002e-01 3.2526326030065413e+00 4.4158364272049493e+00 1.6526185050475128e+01 0 0 0
435 444 4 -4.0000000000000002e-01 2.5130547249603339e+00 5.4954921625406845e+00 2.0145854183833524e+01 0 0 0
6485 444 1 4.1499999999999998e-01 1.0597354341004335e+00 1.4385169148479457e+00 1.9660829226108824e+01 -4 1 0
6486 444 1 4.1499999999999998e-01 1.7771328885170605e+00 1.4218590412979100e+00 2.0993855573970240e+01 -4 1 0
1740 444 1 4.1499999999999998e-01 4.4432074637657442e+00 2.6771461115543644e+00 2.1653045009489698e+01 2 1 0
1738 444 2 -8.2999999999999996e-01 4.4623527344783431e+00 2.3896896961483272e+00 2.0740228403333500e+01 2 1 0
981 444 1 4.1499999999999998e-01 4.0580616720047056e+00 3.1880186911783652e+00 2.3924673823110403e+01 0 -3 0
447 444 5 1.4000000000000001e-01 8.9313112317980092e-01 4.5079164734370938e+00 1.6976291453491235e+01 0 0 0
459 444 6 2.9999999999999999e-02 9.3125719283560660e-01 4.5992736691245968e+00 2.1375355278368893e+01 0 0 0
434 444 4 -4.0000000000000002e-01 5.1329735961446055e+00 4.1381688167931463e+00 1.7535606408531983e+01 0 0 0
433 444 4 -4.0000000000000002e-01 4.9236416828290954e+00 5.1828053824903764e+00 1.9665753313987114e+01 0 0 0
468 444 3 1.0000000000000000e+00 3.3501995514315257e+00 3.5358459822287269e+00 1.8858068326846855e+01 0 0 0
443 444 5 1.4000000000000001e-01 1.1262410702073073e+00 5.3205113782010143e+00 2.0554135249203295e+01 0 0 0
437 444 4 -4.0000000000000002e-01 1.2993887770219419e+00 4.9761225155931381e+00 1.8242562587254291e+01 0 0 0
1739 444 1 4.1499999999999998e-01 4.5411429378597248e+00 1.4370488599004951e+00 2.0790222520379416e+01 2 1 0
6484 444 2 -8.2999999999999996e-01 1.9187140703349748e+00 1.5767245119412423e+00 2.0059937093173765e+01 -4 1 0
445 444 5 1.4000000000000001e-01 4.8575806863496163e-01 4.6300701625156453e+00 1.9358394902160473e+01 0 0 0
6679 444 2 -8.2999999999999996e-01 1.5794935684931213e+00 1.7010969721076119e+00 2.3063810613054084e+01 1 -3 0
6681 444 1 4.1499999999999998e-01 1.9268396954210476e+00 2.2920339420924756e+00 2.3731924728742520e+01 1 -3 0
467 444 6 2.9999999999999999e-02 7.5862780744936398e-01 3.4381402359591484e+00 1.7044745653823977e+01 0 0 0
1820 444 1 4.1499999999999998e-01 2.5038749236176643e+00 1.4953341193103870e-01 1.8779262514132885e+01 2 -1 0
454 444 6 2.9999999999999999e-02 3.5110823070854735e+00 5.0966243585455624e+00 2.1835797098423278e+01 0 0 0
6672 444 1 4.1499999999999998e-01 6.2404281771801862e-01 3.6250539366106977e+00 3.1921353793578920e+01 -2 2 0
2544 444 1 4.1499999999999998e-01 4.2518486463383398e-01 5.2802480440470312e+00 2.6339727186013814e+01 5 -4 0
129 444 6 2.9999999999999999e-02 1.2610027424518555e-01 1.4850526398511568e+00 2.7229327688723593e+01 1 0 0
6719 444 1 4.1499999999999998e-01 4.6117559912498516e+00 3.5699043578122427e+00 3.1554026348688790e+01 3 -2 0
4399 444 2 -8.2999999999999996e-01 4.8309282342464916e+00 3.4348619133007141e-01 3.0276315393511783e+01 -3 3 0
5920 444 2 -8.2999999999999996e-01 2.7829702241302434e+00 3.3453778572068615e+00 2.4882634519248874e+01 0 -1 0
5921 444 1 4.1499999999999998e-01 2.7097106625973790e+00 2.6337589628688720e+00 2.5518609022035140e+01 0 -1 0
5922 444 1 4.1499999999999998e-01 2.0753872301983924e+00 3.9472866415026768e+00 2.5113424940608763e+01 0 -1 0
5854 444 2 -8.2999999999999996e-01 1.2835404736925426e+00 7.3280521639108309e-01 3.1070089875708231e+01 -1 4 0
5856 444 1 4.1499999999999998e-01 2.0426125505841477e+00 4.0260818054973740e-01 3.1550726448280685e+01 -1 4 0
6706 444 2 -8.2999999999999996e-01 1.7812412205215449e+00 2.3727304836048693e+00 2.9081634843497163e+01 -2 -2 0
6707 444 1 4.1499999999999998e-01 2.1970631679196631e+00 3.2166558647129482e+00 2.9258029712585195e+01 -2 -2 0
3223 444 2 -8.2999999999999996e-01 3.5407211145926270e+00 1.1625732829028381e+00 2.6953339293057489e+01 3 -1 0
3225 444 1 4.1499999999999998e-01 3.9406784587518717e+00 3.9142423884860073e-01 2.7355328591978441e+01 3 -1 0
3224 444 1 4.1499999999999998e-01 3.3883599637670949e+00 1.7621855444428993e+00 2.7683738807983804e+01 3 -1 0
1736 444 1 4.1499999999999998e-01 3.6285731129704497e+00 4.4311928526440916e+00 2.8489914734503159e+01 -1 0 0
1735 444 2 -8.2999999999999996e-01 3.0788563736036614e+00 4.6048518281579254e+00 2.9254039626935668e+01 -1 0 0
1737 444 1 4.1499999999999998e-01 3.3030092413173469e+00 5.4987454639940214e+00 2.9512770984890881e+01 -1 0 0
5855 444 1 4.1499999999999998e-01 8.9277078273082511e-01 1.3818179601398073e+00 3.1655165455815261e+01 -1 4 0
6455 444 1 4.1499999999999998e-01 5.5123897270586326e+00 1.8727005989283667e+00 2.4523646187241887e+01 -3 -2 0
2542 444 2 -8.2999999999999996e-01 6.5241088309178319e-01 4.7965959006623695e+00 2.5545572720075405e+01 5 -4 0
6708 444 1 4.1499999999999998e-01 1.5788683300605337e+00 2.0191961333948325e+00 2.9947828117349875e+01 -2 -2 0
6670 444 2 -8.2999999999999996e-01 8.9968393166321559e-01 2.8712861079346923e+00 3.2442974281880076e+01 -2 2 0
6456 444 1 4.1499999999999998e-01 5.2083660164199550e+00 1.3434613773103909e+00 2.5909059722958489e+01 -3 -2 0
4401 444 1 4.1499999999999998e-01 4.8375431329188050e+00 2.9868342550441429e-01 3.1232443978844323e+01 -3 3 0
6718 444 2 -8.2999999999999996e-01 5.3897806435053530e+00 3.0144735903378401e+00 3.1603079312344423e+01 3 -2 0
6574 444 2 -8.2999999999999996e-01 5.3454429923254407e+00 5.0103379093032823e+00 2.7576512584450438e+01 1 -2 0
6720 444 1 4.1499999999999998e-01 5.2060840041720686e+00 2.4068498326266798e+00 3.2319515476920991e+01 3 -2 0
4400 444 1 4.1499999999999998e-01 4.9831377341511534e+00 1.2675298134319353e+00 3.0078305903212318e+01 -3 3 0
5694 444 1 4.1499999999999998e-01 5.0003093458358494e+00 1.2918470211551787e+00 3.4242016274574851e+01 1 0 0
2581 444 2 -8.2999999999999996e-01 4.3379441900067315e+00 2.1090553993903742e+00 3.5804718443597920e+01 1 -4 0
4859 444 1 4.1499999999999998e-01 9.6388175193861847e-01 5.6808017372782356e+00 3.5189958186404141e+01 -1 2 0
4445 444 1 4.1499999999999998e-01 4.1088836232494925e+00 4.3424190969117351e+00 3.3683842924147399e+01 0 -4 0
3801 444 1 4.1499999999999998e-01 3.2002590150620396e+00 4.8388241581009950e-01 3.3710803915394038e+01 1 3 0
5510 444 1 4.1499999999999998e-01 2.0980464720842424e+00 7.8409474100383159e-01 3.9241606241854825e+01 2 0 0
6481 444 2 -8.2999999999999996e-01 2.9822282554154880e+00 5.0224870319201864e-01 3.7717324635219477e+01 3 4 0
4446 444 1 4.1499999999999998e-01 2.6682249781092819e+00 4.7858919821184038e+00 3.3543379646805654e+01 0 -4 0
4860 444 1 4.1499999999999998e-01 1.6460267245151690e+00 4.4084853578341887e+00 3.5645792254091830e+01 -1 2 0
5511 444 1 4.1499999999999998e-01 2.8278496055737903e+00 1.5987749949039316e+00 4.0288305355489577e+01 2 0 0
6671 444 1 4.1499999999999998e-01 1.7659515736604381e+00 3.1110650423156634e+00 3.2772091722294640e+01 -2 2 0
5509 444 2 -8.2999999999999996e-01 2.0631914719611744e+00 1.0365071308064382e+00 4.0164268853718696e+01 2 0 0
4858 444 2 -8.2999999999999996e-01 1.6664434515299735e+00 5.0735924932906968e+00 3.4957716977655998e+01 -1 2 0
2583 444 1 4.1499999999999998e-01 3.5707369087163778e+00 2.5778877606352002e+00 3.6133081548585480e+01 1 -4 0
4444 444 2 -8.2999999999999996e-01 3.3649646539675233e+00 4.3191265160211065e+00 3.3081950643997537e+01 0 -4 0
2724 444 1 4.1499999999999998e-01 4.0770981435311722e+00 4.4155303054537871e+00 3.8631577002200032e+01 3 1 0
2722 444 2 -8.2999999999999996e-01 3.9948901314010632e+00 3.4618721377070947e+00 3.8634740796021866e+01 3 1 0
5692 444 2 -8.2999999999999996e-01 5.1638294722944291e+00 1.0074360034806407e+00 3.3342792483784727e+01 1 0 0
6482 444 1 4.1499999999999998e-01 3.3508660672675972e+00 8.7753824247070733e-01 3.6917639783955089e+01 3 4 0
2582 444 1 4.1499999999999998e-01 5.0795834227759444e+00 2.6644990749985000e+00 3.6044898424859767e+01 1 -4 0
6407 444 1 4.1499999999999998e-01 1.4202240854200683e+00 2.6867937606398731e+00 3.7199511547356117e+01 3 2 0
6408 444 1 4.1499999999999998e-01 2.7376646847778154e+00 3.2449670613330839e+00 3.7694171273679046e+01 3 2 0
6406 444 2 -8.2999999999999996e-01 2.1299327442480998e+00 3.2809450800498285e+00 3.6955524283009488e+01 3 2 0
2723 444 1 4.1499999999999998e-01 4.5295147236074262e+00 3.1773670345784102e+00 3.9376001063801887e+01 3 1 0
6483 444 1 4.1499999999999998e-01 3.7449418032534014e+00 2.5154703157724501e-01 3.8238523880800173e+01 3 4 0
2749 444 2 -8.2999999999999996e-01 5.1368537679292130e+00 2.5903473173745484e+00 4.0969436254647960e+01 1 0 0
2750 444 1 4.1499999999999998e-01 5.5926243632717751e+00 3.2543698013440197e+00 4.1486717468477650e+01 1 0 0
2751 444 1 4.1499999999999998e-01 5.2718270452063480e+00 1.7752375988499671e+00 4.1452769031149444e+01 1 0 0
6881 444 7 0.0000000000000000e+00 1.6907200000000000e+00 5.8607399999999998e+00 0.0000000000000000e+00 0 0 0
6882 444 7 0.0000000000000000e+00 4.2285000000000004e+00 7.3259299999999996e+00 0.0000000000000000e+00 0 0 0
6883 444 7 -8.3330000000000001e-02 1.6907700000000001e+00 5.8607399999999998e+00 7.1781499999999996e+00 0 0 0
6884 444 7 -8.3330000000000001e-02 4.2285500000000003e+00 7.3259299999999996e+00 7.1781499999999996e+00 0 0 0
6885 444 7 0.0000000000000000e+00 2.5366499999999998e+00 7.3259299999999996e+00 2.3926400000000001e+00 0 0 0
6886 444 7 0.0000000000000000e+00 5.0744199999999999e+00 5.8607399999999998e+00 2.3926400000000001e+00 0 0 0
6887 444 7 0.0000000000000000e+00 8.4509000000000001e-01 7.3259299999999996e+00 4.7824200000000001e+00 0 0 0
6888 444 7 0.0000000000000000e+00 3.3828600000000000e+00 5.8607399999999998e+00 4.7824499999999999e+00 0 0 0
6889 444 7 0.0000000000000000e+00 1.6907200000000000e+00 8.7911099999999998e+00 0.0000000000000000e+00 0 0 0
6890 444 7 0.0000000000000000e+00 4.2285000000000004e+00 1.0256300000000000e+01 0.0000000000000000e+00 0 0 0
6891 444 7 -8.3330000000000001e-02 1.6907700000000001e+00 8.7911099999999998e+00 7.1781899999999998e+00 0 0 0
6892 444 7 -8.3330000000000001e-02 4.2285500000000003e+00 1.0256300000000000e+01 7.1781600000000001e+00 0 0 0
6893 444 7 0.0000000000000000e+00 2.5366499999999998e+00 1.0256300000000000e+01 2.3926400000000001e+00 0 0 0
6894 444 7 0.0000000000000000e+00 5.0744199999999999e+00 8.7911099999999998e+00 2.3926400000000001e+00 0 0 0
6895 444 7 0.0000000000000000e+00 8.4509000000000001e-01 1.0256300000000000e+01 4.7824499999999999e+00 0 0 0
6896 444 7 0.0000000000000000e+00 3.3828700000000000e+00 8.7911099999999998e+00 4.7824400000000002e+00 0 0 0
4217 444 1 4.1499999999999998e-01 2.0680121968215892e+00 6.5525854507138810e+00 1.1592146419255712e+01 5 -5 0
5163 444 1 4.1499999999999998e-01 3.6589728422554786e+00 1.0462921389943018e+01 1.2459864986108428e+01 -2 2 0
5161 444 2 -8.2999999999999996e-01 3.7139836588620354e+00 1.0816544636718827e+01 1.3347646658868349e+01 -2 2 0
6293 444 1 4.1499999999999998e-01 2.1438506150543772e+00 7.5715805591449934e+00 1.3498952067631647e+01 -2 -1 0
4335 444 1 4.1499999999999998e-01 1.9667198825133381e-01 6.0421104114506550e+00 9.4585508501466258e+00 4 0 0
6292 444 2 -8.2999999999999996e-01 1.8943863200732092e+00 8.3232614790743078e+00 1.4036516387660159e+01 -2 -1 0
6294 444 1 4.1499999999999998e-01 1.0714168678190066e+00 8.6286881655047765e+00 1.3654851969403287e+01 -2 -1 0
6241 444 2 -8.2999999999999996e-01 3.2332909158138383e+00 1.0304693224783133e+01 1.0748088919128440e+01 -2 0 0
6243 444 1 4.1499999999999998e-01 3.3412604464208142e+00 1.1147613549580456e+01 1.0307566670409722e+01 -2 0 0
4216 444 2 -8.2999999999999996e-01 2.6622185202757072e+00 6.4439196909070819e+00 1.2334671012072457e+01 5 -5 0
6242 444 1 4.1499999999999998e-01 2.4349587757325097e+00 9.9365467121324080e+00 1.0369452061463541e+01 -2 0 0
5667 444 1 4.1499999999999998e-01 4.2060209470150101e+00 8.6445838230708194e+00 1.0269140763195614e+01 -3 3 0
2703 444 1 4.1499999999999998e-01 7.4584150357536994e-01 7.9665246940029766e+00 1.5388888833264732e+01 -4 0 0
228 444 5 1.4000000000000001e-01 5.4268342022757903e+00 6.7519099619684804e+00 1.4836609425908483e+01 1 1 0
4666 444 2 -8.2999999999999996e-01 1.5703316617892482e+00 7.9031588987332748e+00 9.8721523511223737e+00 -1 -2 0
3840 444 1 4.1499999999999998e-01 5.0506910488892585e+00 5.9102005857715696e+00 9.9829964895118177e+00 1 5 0
4667 444 1 4.1499999999999998e-01 1.9707623365689804e+00 7.2815348012558152e+00 9.2643114100636534e+00 -1 -2 0
4668 444 1 4.1499999999999998e-01 7.6884869614483453e-01 8.1865773300727458e+00 9.4322307615229999e+00 -1 -2 0
4758 444 1 4.1499999999999998e-01 4.5361441129413771e-01 1.0835010523215550e+01 1.2974537574653295e+01 -2 0 0
572 444 6 2.9999999999999999e-02 1.6681295693251657e+00 1.1311896467543992e+01 1.5397750830259495e+01 0 1 0
2701 444 2 -8.2999999999999996e-01 3.2915168563496404e-02 7.8114241401107654e+00 1.6008495497979720e+01 -4 0 0
5162 444 1 4.1499999999999998e-01 3.1017587050882378e+00 1.0284736276415883e+01 1.3856166415225598e+01 -2 2 0
245 444 6 2.9999999999999999e-02 5.5240857851886593e+00 7.2084485242112706e+00 1.3892595604264102e+01 1 1 0
226 444 5 1.4000000000000001e-01 5.1872957859684030e+00 7.7844695812358093e+00 1.5866863941830999e+01 1 1 0
244 444 6 2.9999999999999999e-02 4.7019523899354292e+00 5.9141615691489626e+00 1.4823059463461606e+01 1 1 0
240 444 6 2.9999999999999999e-02 4.7282328461736842e+00 8.7368977022567993e+00 1.5597044434094183e+01 1 1 0
5665 444 2 -8.2999999999999996e-01 5.0528104012411159e+00 8.2265002089718138e+00 1.0112979851684639e+01 -3 3 0
4979 444 1 4.1499999999999998e-01 5.4279365988891319e+00 1.0466154718661317e+01 1.3511134816595984e+01 1 -5 0
4756 444 2 -8.2999999999999996e-01 1.7523202681679384e-01 9.9223351543027754e+00 1.2898650678084305e+01 -2 0 0
5666 444 1 4.1499999999999998e-01 5.1482542332690375e+00 8.2261120349931858e+00 9.1605501353567576e+00 -3 3 0
465 444 6 2.9999999999999999e-02 2.0773845092242595e+00 5.9455763400553092e+00 1.5775010286876324e+01 0 0 0
4218 444 1 4.1499999999999998e-01 3.4958498489013099e+00 6.1886125444683069e+00 1.1939563972909459e+01 5 -5 0
4757 444 1 4.1499999999999998e-01 5.7278889031906033e-02 9.7847678976214780e+00 1.1958760122464110e+01 -2 0 0
985 444 2 -8.2999999999999996e-01 1.9391214477284504e+00 1.1182063172788812e+01 2.3912379548410190e+01 1 2 0
554 444 5 1.4000000000000001e-01 1.6498078718125886e+00 1.1584706577902972e+01 1.6406444942441293e+01 0 1 0
573 444 6 2.9999999999999999e-02 1.5566348899952571e+00 1.0622570950339769e+01 1.6940528291168643e+01 0 1 0
455 444 6 2.9999999999999999e-02 3.0204945270418611e+00 6.8328202533774816e+00 2.1750576331678122e+01 0 0 0
450 444 6 2.9999999999999999e-02 4.5065210689602413e+00 7.2045095033920168e+00 1.9905693649601989e+01 0 0 0
3006 444 1 4.1499999999999998e-01 3.4435367729058544e+00 1.1278909052314498e+01 2.0114247424342896e+01 0 -2 0
4759 444 2 -8.2999999999999996e-01 2.0459341656901833e+00 7.6505798126403572e+00 1.8436882999798186e+01 0 1 0
4760 444 1 4.1499999999999998e-01 1.1929173939396005e+00 7.5462997992694634e+00 1.8015314197189991e+01 0 1 0
5658 444 1 4.1499999999999998e-01 2.7343345730907185e+00 8.8574207789857198e+00 1.9140796779946207e+01 -3 0 0
5656 444 2 -8.2999999999999996e-01 2.9532896825744652e+00 9.6341032531136257e+00 1.9655631631956517e+01 -3 0 0
5657 444 1 4.1499999999999998e-01 2.5501076431822969e+00 9.4775069961123624e+00 2.0509536637132577e+01 -3 0 0
1026 444 1 4.1499999999999998e-01 4.7158491648575590e-01 9.3326445858392351e+00 2.2030472522740308e+01 1 2 0
1024 444 2 -8.2999999999999996e-01 1.4198342351662927e+00 9.4048372012812411e+00 2.1921644308878300e+01 1 2 0
4761 444 1 4.1499999999999998e-01 2.2016828273974829e+00 6.8132566519757027e+00 1.8873763592687286e+01 0 1 0
1025 444 1 4.1499999999999998e-01 1.7247784565542861e+00 9.8072572576102317e+00 2.2734847985247121e+01 1 2 0
6860 444 1 4.1499999999999998e-01 6.8636771767265881e-01 1.0233719448025999e+01 1.9520185702980527e+01 0 1 0
241 444 6 2.9999999999999999e-02 4.6735693346421030e+00 7.3716077696160873e+00 1.6680010154035269e+01 1 1 0
458 444 6 2.9999999999999999e-02 5.9567144367572578e-01 6.2875020353184778e+00 2.0676073978972394e+01 0 0 0
237 444 6 2.9999999999999999e-02 5.6408816208770229e+00 9.1648240979648321e+00 1.7827259265399181e+01 1 1 0
3174 444 1 4.1499999999999998e-01 5.5358701001213380e+00 1.1320422403892220e+01 2.2786525668631906e+01 -1 -3 0
439 444 5 1.4000000000000001e-01 4.6560833038222915e+00 6.3084498165533809e+00 2.0551614358113437e+01 0 0 0
451 444 6 2.9999999999999999e-02 5.4229232719683900e+00 6.4474782831698425e+00 2.1283935551421393e+01 0 0 0
441 444 5 1.4000000000000001e-01 3.3400697000718242e+00 5.9362215527161162e+00 2.1166611517865128e+01 0 0 0
986 444 1 4.1499999999999998e-01 2.6255576208693778e+00 1.1717336462024631e+01 2.4310525158850801e+01 1 2 0
3822 444 1 4.1499999999999998e-01 1.5116093501832228e+00 9.1084468177950271e+00 3.2214119162626311e+01 2 -1 0
3980 444 1 4.1499999999999998e-01 2.0134431815733449e+00 7.2103108152399766e+00 2.6652631345160803e+01 2 1 0
987 444 1 4.1499999999999998e-01 1.2126122158391881e+00 1.1221966072155839e+01 2.4534332091936992e+01 1 2 0
6144 444 1 4.1499999999999998e-01 3.3287834515942932e-01 7.3414116123537223e+00 2.8378582566247616e+01 2 5 0
3293 444 1 4.1499999999999998e-01 1.7596564332160267e-01 8.9322013305277981e+00 2.9736649046007106e+01 4 -2 0
2776 444 2 -8.2999999999999996e-01 4.6175578827454569e+00 9.5011794781368906e+00 2.4949925150321860e+01 -2 -5 0
2778 444 1 4.1499999999999998e-01 5.2654260427254087e+00 1.0194140569204782e+01 2.5077615090914296e+01 -2 -5 0
2777 444 1 4.1499999999999998e-01 3.7811511373013933e+00 9.9627416753798990e+00 2.4889790355110012e+01 -2 -5 0
6142 444 2 -8.2999999999999996e-01 9.6693969389780321e-01 6.6555858576180187e+00 2.8169198286355321e+01 2 5 0
6123 444 1 4.1499999999999998e-01 1.9813903162727897e+00 9.4578275269036389e+00 2.6732285455232581e+01 -1 1 0
3979 444 2 -8.2999999999999996e-01 2.2372678477686643e+00 7.8671574970208367e+00 2.5993323506246369e+01 2 1 0
5190 444 1 4.1499999999999998e-01 5.1802577288209219e+00 8.2343441757353251e+00 2.7588404311308693e+01 1 -4 0
2840 444 1 4.1499999999999998e-01 3.7102190004935971e+00 1.0056134311734166e+01 2.9320192792507015e+01 -3 0 0
2839 444 2 -8.2999999999999996e-01 3.4111600570464340e+00 9.1963206893392169e+00 2.9024360020673004e+01 -3 0 0
6121 444 2 -8.2999999999999996e-01 1.5718991635834116e+00 1.0096894102965035e+01 2.7315504034669406e+01 -1 1 0
2841 444 1 4.1499999999999998e-01 2.5580948769103387e+00 9.3637031782545819e+00 2.8623741316179515e+01 -3 0 0
2916 444 1 4.1499999999999998e-01 3.8537773912768651e+00 7.7416258415821737e+00 3.1829211254784934e+01 -1 1 0
2915 444 1 4.1499999999999998e-01 3.9092795405389396e+00 7.8451927168979232e+00 3.0319877421815800e+01 -1 1 0
2914 444 2 -8.2999999999999996e-01 4.4361498276134697e+00 7.6047356142485887e+00 3.1081992895056711e+01 -1 1 0
5188 444 2 -8.2999999999999996e-01 5.3570568304444848e+00 7.6899985579456871e+00 2.6821161335132924e+01 1 -4 0
3981 444 1 4.1499999999999998e-01 1.3998385960899202e+00 8.0995933409257681e+00 2.5592178010096738e+01 2 1 0
3820 444 2 -8.2999999999999996e-01 9.2570464778527550e-01 9.3426052483957172e+00 3.1494315439964478e+01 2 -1 0
3821 444 1 4.1499999999999998e-01 1.2174768995781500e+00 1.0212180025629298e+01 3.1220562765030287e+01 2 -1 0
5189 444 1 4.1499999999999998e-01 4.8346076201579011e+00 8.0834250441977176e+00 2.6122237636498586e+01 1 -4 0
6122 444 1 4.1499999999999998e-01 1.9874135826435448e+00 1.0929012530112512e+01 2.7089321348160876e+01 -1 1 0
6143 444 1 4.1499999999999998e-01 8.1370089213458163e-01 5.9779411974338492e+00 2.8827641546015400e+01 2 5 0
3294 444 1 4.1499999999999998e-01 1.5701447843435914e-01 9.4832534111468352e+00 2.8326727892879052e+01 4 -2 0
2168 444 1 4.1499999999999998e-01 2.8421480242961135e+00 1.1713472911268658e+01 2.9915806328166575e+01 3 -5 0
6575 444 1 4.1499999999999998e-01 5.2632064520543924e+00 5.8718748698725438e+00 2.7167582221615550e+01 1 -2 0
2886 444 1 4.1499999999999998e-01 2.5659628852489744e+00 1.0946798724113702e+01 3.6538874886066736e+01 -5 1 0
4345 444 2 -8.2999999999999996e-01 1.0760393170540160e-01 6.2129811726918982e+00 3.7482593808924101e+01 -4 2 0
2399 444 1 4.1499999999999998e-01 1.9474049665251243e+00 6.7788817090784148e+00 3.8119803227592520e+01 -2 0 0
6043 444 2 -8.2999999999999996e-01 3.4052995103689438e+00 9.5340366521795339e+00 3.7198001610507816e+01 -2 -5 0
3996 444 1 4.1499999999999998e-01 4.0471308606776839e+00 6.3793213465664174e+00 3.7976031698913239e+01 -2 0 0
6045 444 1 4.1499999999999998e-01 3.6054789127636555e+00 8.8180941353084208e+00 3.6595019830146555e+01 -2 -5 0
1998 444 1 4.1499999999999998e-01 3.0764889843454739e+00 1.0058583604549634e+01 3.3475969491349964e+01 -1 -1 0
3995 444 1 4.1499999999999998e-01 5.3190719565270852e+00 6.6885621261531520e+00 3.7215484937550798e+01 -2 0 0
2884 444 2 -8.2999999999999996e-01 1.9900926324931305e+00 1.1573109079042718e+01 3.6100308295362879e+01 -5 1 0
2400 444 1 4.1499999999999998e-01 2.5185259484647102e+00 7.0140899341478429e+00 3.9501973214027245e+01 -2 0 0
2398 444 2 -8.2999999999999996e-01 2.6230412389631232e+00 7.2713050058334598e+00 3.8585922438562299e+01 -2 0 0
1996 444 2 -8.2999999999999996e-01 2.9187249378991043e+00 9.1637993557110171e+00 3.3174796996663645e+01 -1 -1 0
2521 444 2 -8.2999999999999996e-01 3.5753895247442000e+00 6.9934408823431138e+00 3.4838769468088124e+01 0 1 0
2522 444 1 4.1499999999999998e-01 2.8208714941459605e+00 6.4112952561932222e+00 3.4749092483181201e+01 0 1 0
4040 444 1 4.1499999999999998e-01 5.0986814584657916e+00 1.0034885459567541e+01 3.7837356171579074e+01 1 -1 0
6044 444 1 4.1499999999999998e-01 2.8386878272174454e+00 9.1385696468613382e+00 3.7860413937757784e+01 -2 -5 0
2523 444 1 4.1499999999999998e-01 4.3345036863234778e+00 6.4220380733256368e+00 3.4722677819534347e+01 0 1 0
1997 444 1 4.1499999999999998e-01 3.0858446431246365e+00 8.6187909882961797e+00 3.3943737298092117e+01 -1 -1 0
1446 444 1 4.1499999999999998e-01 3.3059593223699058e-01 1.1556814962775123e+01 3.5376799534693568e+01 0 -4 0
2984 444 1 4.1499999999999998e-01 5.1531250369540169e+00 1.1374337548899964e+01 3.4208610773752902e+01 0 4 0
4460 444 1 4.1499999999999998e-01 5.4046893149956796e+00 8.0033385024647572e+00 3.3251665946376846e+01 0 -3 0
3994 444 2 -8.2999999999999996e-01 4.9265347404568471e+00 6.0431006836345533e+00 3.7803299618900979e+01 -2 0 0
6897 444 7 0.0000000000000000e+00 1.6907200000000000e+00 1.1721480000000000e+01 0.0000000000000000e+00 0 0 0
6898 444 7 0.0000000000000000e+00 4.2285000000000004e+00 1.3186669999999999e+01 0.0000000000000000e+00 0 0 0
6899 444 7 -8.3330000000000001e-02 1.6907700000000001e+00 1.1721480000000000e+01 7.1781499999999996e+00 0 0 0
6900 444 7 -8.3330000000000001e-02 4.2285500000000003e+00 1.3186669999999999e+01 7.1781499999999996e+00 0 0 0
6901 444 7 0.0000000000000000e+00 2.5366499999999998e+00 1.3186669999999999e+01 2.3926400000000001e+00 0 0 0
6902 444 7 0.0000000000000000e+00 5.0744199999999999e+00 1.1721480000000000e+01 2.3926400000000001e+00 0 0 0
6903 444 7 0.0000000000000000e+00 8.4509000000000001e-01 1.3186669999999999e+01 4.7824200000000001e+00 0 0 0
6904 444 7 0.0000000000000000e+00 3.3828600000000000e+00 1.1721480000000000e+01 4.7824499999999999e+00 0 0 0
6905 444 7 0.0000000000000000e+00 1.6907200000000000e+00 1.4651850000000000e+01 0.0000000000000000e+00 0 0 0
6907 444 7 -8.3330000000000001e-02 1.6907700000000001e+00 1.4651850000000000e+01 7.1781899999999998e+00 0 0 0
6910 444 7 0.0000000000000000e+00 5.0744199999999999e+00 1.4651850000000000e+01 2.3926400000000001e+00 0 0 0
6912 444 7 0.0000000000000000e+00 3.3828700000000000e+00 1.4651850000000000e+01 4.7824400000000002e+00 0 0 0
6906 444 7 0.0000000000000000e+00 4.2285000000000004e+00 1.6117039999999999e+01 0.0000000000000000e+00 0 0 0
6908 444 7 -8.3330000000000001e-02 4.2285500000000003e+00 1.6117039999999999e+01 7.1781600000000001e+00 0 0 0