LAMMPS data file via write_data, version 11 Aug 2017, timestep = 5000000

7296 atoms
7 atom types
4160 bonds
5 bond types
2260 angles
3 angle types
300 dihedrals
2 dihedral types

0.0000000000000000e+00 4.5679949999999998e+01 xlo xhi
0.0000000000000000e+00 4.6885919999999999e+01 ylo yhi
0.0000000000000000e+00 6.5000000000000000e+01 zlo zhi

Masses

1 1.0079
2 15.9994
3 22.9898
4 15.9994
5 12.011
6 1.0079
7 107.868

Angle Coeffs # harmonic

1 50 109.471
2 50 104.51
3 55 104.52

Dihedral Coeffs # charmm

1 0.111111 3 0 0
2 0.333333 3 0 0

Atoms # full

6145 444 7 0.0000000000000000e+00 1.6907200000000000e+00 0.0000000000000000e+00 0.0000000000000000e+00 0 0 0
6146 444 7 0.0000000000000000e+00 4.2285000000000004e+00 1.4651900000000000e+00 0.0000000000000000e+00 0 0 0
6147 444 7 -1.3890000000000000e-02 1.6907700000000001e+00 0.0000000000000000e+00 7.1781499999999996e+00 0 0 0
6148 444 7 -1.3890000000000000e-02 4.2285500000000003e+00 1.4651900000000000e+00 7.1781499999999996e+00 0 0 0
6149 444 7 0.0000000000000000e+00 2.5366499999999998e+00 1.4651900000000000e+00 2.3926400000000001e+00 0 0 0
6150 444 7 0.0000000000000000e+00 5.0744199999999999e+00 0.0000000000000000e+00 2.3926400000000001e+00 0 0 0
6151 444 7 0.0000000000000000e+00 8.4509000000000001e-01 1.4651900000000000e+00 4.7824200000000001e+00 0 0 0
6152 444 7 0.0000000000000000e+00 3.3828600000000000e+00 0.0000000000000000e+00 4.7824499999999999e+00 0 0 0
6153 444 7 0.0000000000000000e+00 1.6907200000000000e+00 2.9303699999999999e+00 0.0000000000000000e+00 0 0 0
6154 444 7 0.0000000000000000e+00 4.2285000000000004e+00 4.3955599999999997e+00 0.0000000000000000e+00 0 0 0
6155 444 7 -1.3890000000000000e-02 1.6907700000000001e+00 2.9303699999999999e+00 7.1781899999999998e+00 0 0 0
6156 444 7 -1.3890000000000000e-02 4.2285500000000003e+00 4.3955599999999997e+00 7.1781600000000001e+00 0 0 0
6157 444 7 0.0000000000000000e+00 2.5366499999999998e+00 4.3955599999999997e+00 2.3926400000000001e+00 0 0 0
6158 444 7 0.0000000000000000e+00 5.0744199999999999e+00 2.9303699999999999e+00 2.3926400000000001e+00 0 0 0
6159 444 7 0.0000000000000000e+00 8.4509000000000001e-01 4.3955599999999997e+00 4.7824499999999999e+00 0 0 0
6160 444 7 0.0000000000000000e+00 3.3828700000000000e+00 2.9303699999999999e+00 4.7824400000000002e+00 0 0 0
6161 444 7 0.0000000000000000e+00 1.6907200000000000e+00 5.8607399999999998e+00 0.0000000000000000e+00 0 0 0
6163 444 7 -1.3890000000000000e-02 1.6907700000000001e+00 5.8607399999999998e+00 7.1781499999999996e+00 0 0 0
6166 444 7 0.0000000000000000e+00 5.0744199999999999e+00 5.8607399999999998e+00 2.3926400000000001e+00 0 0 0
6168 444 7 0.0000000000000000e+00 3.3828600000000000e+00 5.8607399999999998e+00 4.7824499999999999e+00 0 0 0
6273 444 7 0.0000000000000000e+00 6.7662699999999996e+00 0.0000000000000000e+00 0.0000000000000000e+00 0 0 0
6274 444 7 0.0000000000000000e+00 9.3040500000000002e+00 1.4651900000000000e+00 0.0000000000000000e+00 0 0 0
6275 444 7 -1.3890000000000000e-02 6.7663200000000003e+00 0.0000000000000000e+00 7.1781499999999996e+00 0 0 0
6276 444 7 -1.3890000000000000e-02 9.3041000000000000e+00 1.4651900000000000e+00 7.1781499999999996e+00 0 0 0
6277 444 7 0.0000000000000000e+00 7.6121999999999996e+00 1.4651900000000000e+00 2.3926400000000001e+00 0 0 0
6278 444 7 0.0000000000000000e+00 1.0149970000000000e+01 0.0000000000000000e+00 2.3926400000000001e+00 0 0 0
6279 444 7 0.0000000000000000e+00 5.9206399999999997e+00 1.4651900000000000e+00 4.7824200000000001e+00 0 0 0
6280 444 7 0.0000000000000000e+00 8.4584100000000007e+00 0.0000000000000000e+00 4.7824499999999999e+00 0 0 0
6281 444 7 0.0000000000000000e+00 6.7662699999999996e+00 2.9303699999999999e+00 0.0000000000000000e+00 0 0 0
6282 444 7 0.0000000000000000e+00 9.3040500000000002e+00 4.3955599999999997e+00 0.0000000000000000e+00 0 0 0
6283 444 7 -1.3890000000000000e-02 6.7663200000000003e+00 2.9303699999999999e+00 7.1781899999999998e+00 0 0 0
6284 444 7 -1.3890000000000000e-02 9.3041000000000000e+00 4.3955599999999997e+00 7.1781600000000001e+00 0 0 0
6285 444 7 0.0000000000000000e+00 7.6121999999999996e+00 4.3955599999999997e+00 2.3926400000000001e+00 0 0 0
6286 444 7 0.0000000000000000e+00 1.0149970000000000e+01 2.9303699999999999e+00 2.3926400000000001e+00 0 0 0
6287 444 7 0.0000000000000000e+00 5.9206399999999997e+00 4.3955599999999997e+00 4.7824499999999999e+00 0 0 0
6288 444 7 0.0000000000000000e+00 8.4584200000000003e+00 2.9303699999999999e+00 4.7824400000000002e+00 0 0 0
6407 444 7 0.0000000000000000e+00 1.0996190000000000e+01 1.4651900000000000e+00 4.7824200000000001e+00 0 0 0
6415 444 7 0.0000000000000000e+00 1.0996190000000000e+01 4.3955599999999997e+00 4.7824499999999999e+00 0 0 0
6289 444 7 0.0000000000000000e+00 6.7662699999999996e+00 5.8607399999999998e+00 0.0000000000000000e+00 0 0 0
6291 444 7 -1.3890000000000000e-02 6.7663200000000003e+00 5.8607399999999998e+00 7.1781499999999996e+00 0 0 0
6294 444 7 0.0000000000000000e+00 1.0149970000000000e+01 5.8607399999999998e+00 2.3926400000000001e+00 0 0 0
6296 444 7 0.0000000000000000e+00 8.4584100000000007e+00 5.8607399999999998e+00 4.7824499999999999e+00 0 0 0
1607 444 1 4.1499999999999998e-01 1.9462955852991135e+00 2.5027724348512819e+00 1.3216746892757950e+01 1 -1 0
769 444 2 -8.2999999999999996e-01 4.5062383126223331e+00 5.3536415919359859e-01 1.3829717983208392e+01 1 -1 0
5849 444 1 4.1499999999999998e-01 1.1195631511423958e+01 6.5680451272832852e-01 1.1234010934022509e+01 3 5 0
5332 444 2 -8.2999999999999996e-01 2.0181608836883282e+00 3.3591451161205121e+00 1.0602780896705351e+01 -1 1 0
5333 444 1 4.1499999999999998e-01 1.4632786214939641e+00 2.5794999116511081e+00 1.0624932414037382e+01 -1 1 0
2897 444 1 4.1499999999999998e-01 5.0199167826392337e+00 3.5231483732841866e+00 9.4529013975361167e+00 -1 5 0
5334 444 1 4.1499999999999998e-01 1.4813965193662368e+00 4.0235310018381769e+00 1.0170684685369837e+01 -1 1 0
2898 444 1 4.1499999999999998e-01 3.8681370937895965e+00 3.1837375151354110e+00 1.0374909662826678e+01 -1 5 0
2896 444 2 -8.2999999999999996e-01 4.6529306443463900e+00 2.8094464616337000e+00 9.9746126756191842e+00 -1 5 0
623 444 1 4.1499999999999998e-01 3.1412674989950573e+00 5.0265617877833542e+00 1.0328733504927229e+01 1 0 0
2524 444 2 -8.2999999999999996e-01 7.1650028908138914e+00 2.0980591794204582e+00 1.1694907666451943e+01 1 2 0
3073 444 2 -8.2999999999999996e-01 8.8029871439768625e-01 1.0802658258202187e+00 1.0870986687764683e+01 -2 -2 0
2526 444 1 4.1499999999999998e-01 7.1890489192658862e+00 2.3294662737806719e+00 1.2623403549107378e+01 1 2 0
2525 444 1 4.1499999999999998e-01 6.2792815503209178e+00 2.3270981942144053e+00 1.1413356821925966e+01 1 2 0
2630 444 1 4.1499999999999998e-01 8.0006886431710829e+00 7.0158172803114160e-01 1.1086469783166089e+01 1 -3 0
1606 444 2 -8.2999999999999996e-01 2.8830046656481714e+00 2.6953078255418341e+00 1.3258448587040579e+01 1 -1 0
1770 444 1 4.1499999999999998e-01 4.7454528398639271e+00 8.5817134878009849e-01 1.0252514876379696e+01 -4 -3 0
1608 444 1 4.1499999999999998e-01 3.0197751104948543e+00 3.3675852003335196e+00 1.2590938786963140e+01 1 -1 0
622 444 2 -8.2999999999999996e-01 3.8437452907210909e+00 5.5032378570148959e+00 1.0770929157169380e+01 1 0 0
5048 444 1 4.1499999999999998e-01 7.3266060762376242e+00 1.0642327602110602e+00 1.4246963391880950e+01 0 1 0
3907 444 2 -8.2999999999999996e-01 7.9285582352504766e+00 5.3342889417072854e+00 1.3155711675043037e+01 -2 -1 0
1769 444 1 4.1499999999999998e-01 4.8416345538940462e+00 1.9000932483050256e-01 1.1607580929466291e+01 -4 -3 0
771 444 1 4.1499999999999998e-01 4.1376603688999340e+00 1.4171566335090697e+00 1.3776574997828906e+01 1 -1 0
2629 444 2 -8.2999999999999996e-01 8.6418299369658360e+00 8.3751391597209998e-02 1.0735106056866558e+01 1 -3 0
1909 444 2 -8.2999999999999996e-01 7.5925685591531122e+00 3.0662131237502241e+00 1.4586051706189643e+01 5 2 0
6090 444 1 4.1499999999999998e-01 2.0014397538848079e+00 5.7261732416864612e+00 1.3732320297368004e+01 3 -4 0
1911 444 1 4.1499999999999998e-01 8.4446815569648646e+00 3.1709218779467565e+00 1.5009338083797338e+01 5 2 0
2631 444 1 4.1499999999999998e-01 9.3704185931752288e+00 6.3279293869187869e-01 1.0445374120891877e+01 1 -3 0
6088 444 2 -8.2999999999999996e-01 2.7021740243600423e+00 5.5284849935728104e+00 1.4353708028277531e+01 3 -4 0
3909 444 1 4.1499999999999998e-01 7.9745143049103167e+00 4.6341936296604276e+00 1.3806854613103535e+01 -2 -1 0
6089 444 1 4.1499999999999998e-01 2.9799000147845289e+00 4.6407596012438574e+00 1.4127779425478758e+01 3 -4 0
1910 444 1 4.1499999999999998e-01 6.9609868288707357e+00 3.3623017248873701e+00 1.5241542258348122e+01 5 2 0
2411 444 1 4.1499999999999998e-01 7.0018785289416439e+00 5.5391998879687936e+00 1.1373286105068722e+01 0 -2 0
2725 444 2 -8.2999999999999996e-01 9.4723468220847611e+00 3.5074356792504555e+00 1.1026766519951195e+01 -1 3 0
2410 444 2 -8.2999999999999996e-01 6.7012700651732082e+00 5.5354762321125426e+00 1.0464521618399102e+01 0 -2 0
363 444 1 4.1499999999999998e-01 5.6689514089947757e-01 6.1410006664768124e+00 1.0091199893587046e+01 -5 -3 0
6046 444 2 -8.2999999999999996e-01 1.0060911712588441e+01 3.3368329612967011e+00 1.5564192799035936e+01 -7 -1 0
3908 444 1 4.1499999999999998e-01 8.6220149034295410e+00 5.1257205121791083e+00 1.2529732979185631e+01 -2 -1 0
2726 444 1 4.1499999999999998e-01 1.0225283169777677e+01 2.9258245174940760e+00 1.1131873470967330e+01 -1 3 0
2727 444 1 4.1499999999999998e-01 8.7136315390932317e+00 2.9242793997708336e+00 1.1049400240185243e+01 -1 3 0
2412 444 1 4.1499999999999998e-01 5.7595226506017436e+00 5.3748030244959812e+00 1.0523921135643349e+01 0 -2 0
624 444 1 4.1499999999999998e-01 3.4403943473182426e+00 6.3277810684216176e+00 1.1042348641216154e+01 1 0 0
5047 444 2 -8.2999999999999996e-01 7.0070188360955443e+00 1.9615008445598858e-01 1.4000938413311829e+01 0 1 0
6047 444 1 4.1499999999999998e-01 1.0138020701787891e+01 4.1610353287084036e+00 1.6044793965686559e+01 -7 -1 0
2301 444 1 4.1499999999999998e-01 5.7063922834868708e-01 5.2306954636670664e+00 1.1893120960688853e+01 -2 3 0
5859 444 1 4.1499999999999998e-01 2.6049787456767808e+00 5.5071553710790280e+00 1.6139655660689701e+01 -2 2 0
6048 444 1 4.1499999999999998e-01 1.0957750896691099e+01 3.0070819957215762e+00 1.5507830812904524e+01 -7 -1 0
3075 444 1 4.1499999999999998e-01 1.4229466794504013e+00 3.4830122898596050e-01 1.0577741267111401e+01 -2 -2 0
2802 444 1 4.1499999999999998e-01 2.2115671817180833e-02 1.5268042669177706e+00 1.2545027377165521e+01 7 -1 0
5049 444 1 4.1499999999999998e-01 6.0555607257503175e+00 2.9304201794506657e-01 1.3961299749234714e+01 0 1 0
2299 444 2 -8.2999999999999996e-01 7.1847849489697979e-01 5.5809732061199178e+00 1.2771575268138486e+01 -2 3 0
1768 444 2 -8.2999999999999996e-01 4.4921214446103379e+00 6.5335372857869126e-02 1.0725237963668725e+01 -4 -3 0
5848 444 2 -8.2999999999999996e-01 1.1055312813240466e+01 1.3894445501691763e+00 1.0634193428564952e+01 3 5 0
361 444 2 -8.2999999999999996e-01 1.9539928020714240e-01 5.2588311682593085e+00 1.0090511444146699e+01 -5 -3 0
4807 444 2 -8.2999999999999996e-01 9.2286951964362860e+00 6.3482437433001477e+00 1.0302086988217063e+01 0 0 0
4809 444 1 4.1499999999999998e-01 8.3044067255070981e+00 6.2210777001515920e+00 1.0088191121437269e+01 0 0 0
4808 444 1 4.1499999999999998e-01 9.6003812977150744e+00 5.4661888232572826e+00 1.0294316788676829e+01 0 0 0
2300 444 1 4.1499999999999998e-01 1.8230781785263162e-01 6.3731006346121388e+00 1.2807453695850842e+01 -2 3 0
315 444 1 4.1499999999999998e-01 9.5556329815540053e+00 1.3705421866446190e+00 1.9443457655230421e+01 0 -2 0
5646 444 1 4.1499999999999998e-01 6.4184562034601522e-01 4.4826839786034745e-01 1.6848752009432733e+01 -3 -2 0
2707 444 2 -8.2999999999999996e-01 7.4216315151149006e+00 4.9711466069135071e+00 1.6593085826790045e+01 1 -2 0
2709 444 1 4.1499999999999998e-01 6.7371351138935642e+00 4.4354274297827718e+00 1.6993961523615173e+01 1 -2 0
2708 444 1 4.1499999999999998e-01 6.9864505426338326e+00 5.7967011063290332e+00 1.6380226369239516e+01 1 -2 0
5676 444 1 4.1499999999999998e-01 9.0934912892143540e+00 5.1739441060270579e+00 1.7303163878903259e+01 3 -4 0
5674 444 2 -8.2999999999999996e-01 9.9557997658846524e+00 5.0943168757901054e+00 1.7710983204937524e+01 3 -4 0
3439 444 2 -8.2999999999999996e-01 9.1984941367872235e+00 1.5421075995363245e+00 1.7347041176392658e+01 -1 2 0
3441 444 1 4.1499999999999998e-01 9.6479020543306646e+00 7.0112788214226229e-01 1.7263271216340570e+01 -1 2 0
3694 444 2 -8.2999999999999996e-01 6.6411313689030997e+00 1.9148976522474476e-01 1.7143479723559164e+01 -1 1 0
3698 444 1 4.1499999999999998e-01 8.6116279392134203e+00 1.2562555568878211e+00 2.1072221909862307e+01 -1 -4 0
3699 444 1 4.1499999999999998e-01 7.2414442138587232e+00 1.8654729621786303e+00 2.0864025307200230e+01 -1 -4 0
753 444 1 4.1499999999999998e-01 8.2568943678583278e+00 1.3430310117183988e+00 2.3129766090905207e+01 -2 0 0
3697 444 2 -8.2999999999999996e-01 7.7374744392974675e+00 1.3035155920333872e+00 2.1459331710225900e+01 -1 -4 0
3788 444 1 4.1499999999999998e-01 1.0056333212572668e+00 5.2350981208654943e+00 2.1176406471344965e+01 2 -3 0
5253 444 1 4.1499999999999998e-01 7.2957591592630715e+00 5.0622818672276839e+00 2.1354152636274559e+01 0 -3 0
3552 444 1 4.1499999999999998e-01 5.0189259761984699e+00 2.7919009073057164e+00 1.7079983888240836e+01 0 -1 0
3550 444 2 -8.2999999999999996e-01 5.4657779742455395e+00 3.5530495403990017e+00 1.7450399697474062e+01 0 -1 0
5251 444 2 -8.2999999999999996e-01 6.9170346515044168e+00 4.1961055347723732e+00 2.1504283619317103e+01 0 -3 0
938 444 1 4.1499999999999998e-01 5.1219778450170983e+00 4.3799868695976540e+00 2.2106001743697799e+01 5 -7 0
313 444 2 -8.2999999999999996e-01 1.0043318726824765e+01 1.3578235103889618e+00 2.0267006617344911e+01 0 -2 0
738 444 1 4.1499999999999998e-01 2.5728588539106871e+00 2.3918592029836612e+00 1.7788371653779606e+01 1 0 0
737 444 1 4.1499999999999998e-01 1.2353305058134183e+00 2.3614610892611898e+00 1.7079859650712155e+01 1 0 0
736 444 2 -8.2999999999999996e-01 1.6780549621810106e+00 2.7269105922299031e+00 1.7845806408702895e+01 1 0 0
4984 444 2 -8.2999999999999996e-01 7.4412565756960021e+00 2.7841921405709358e+00 1.9213631995995577e+01 6 -3 0
4985 444 1 4.1499999999999998e-01 6.8186466346750443e+00 3.1613169514562136e+00 1.8592048029363809e+01 6 -3 0
1947 444 1 4.1499999999999998e-01 5.1088893019624555e+00 9.8154419161020057e-01 1.7355564684737953e+01 1 -4 0
4986 444 1 4.1499999999999998e-01 8.1864354535966459e+00 2.5177773151502496e+00 1.8675148537705347e+01 6 -3 0
3551 444 1 4.1499999999999998e-01 4.8168987299583561e+00 3.9545472117440386e+00 1.8028315916769202e+01 0 -1 0
937 444 2 -8.2999999999999996e-01 4.2592322613256668e+00 4.0820528954292783e+00 2.1817665300945016e+01 5 -7 0
3787 444 2 -8.2999999999999996e-01 1.7553422957357789e+00 5.7452997136937274e+00 2.1482777608003680e+01 2 -3 0
1946 444 1 4.1499999999999998e-01 3.9413901451161819e+00 6.4678019703425838e-01 1.6451809285189103e+01 1 -4 0
4857 444 1 4.1499999999999998e-01 5.2045274542924580e-01 4.7843798655050662e+00 1.8093695975841388e+01 -2 3 0
3662 444 1 4.1499999999999998e-01 1.0166842983886426e+01 2.5874451571239510e+00 2.3412360101580958e+01 -1 4 0
939 444 1 4.1499999999999998e-01 4.1597036827957563e+00 4.4492782178721653e+00 2.0939330242585914e+01 5 -7 0
4327 444 2 -8.2999999999999996e-01 3.8113947787961440e+00 5.1720546874417179e+00 1.9311022358931144e+01 -5 2 0
3789 444 1 4.1499999999999998e-01 2.4962406458538711e+00 5.4099989213982607e+00 2.0977925465139496e+01 2 -3 0
4329 444 1 4.1499999999999998e-01 3.1332692138841662e+00 5.0902940101809246e+00 1.8640431042064197e+01 -5 2 0
5252 444 1 4.1499999999999998e-01 7.1462661744566356e+00 3.6950120991716746e+00 2.0721601683867213e+01 0 -3 0
3695 444 1 4.1499999999999998e-01 7.4033902259810258e+00 7.6603940756414735e-01 1.7214801244436554e+01 -1 1 0
495 444 1 4.1499999999999998e-01 6.8536028044922963e+00 4.4380625114403163e+00 2.3742470099059823e+01 5 -5 0
751 444 2 -8.2999999999999996e-01 8.5814403572536264e+00 1.2710346305247533e+00 2.4027384199066972e+01 -2 0 0
1945 444 2 -8.2999999999999996e-01 4.2192942188172822e+00 1.2573066746230475e+00 1.7134640514357937e+01 1 -4 0
5989 444 2 -8.2999999999999996e-01 2.5586784202716877e+00 6.3511078837629613e+00 2.4224210455604872e+01 2 0 0
4251 444 1 4.1499999999999998e-01 1.6678874221612419e+00 2.4665724833840708e+00 2.1972755307543252e+01 0 3 0
4250 444 1 4.1499999999999998e-01 3.0828879327788044e+00 2.9466618514993477e+00 2.2216030669974383e+01 0 3 0
314 444 1 4.1499999999999998e-01 1.0631548181024353e+01 2.1107383490640190e+00 2.0209232753256043e+01 0 -2 0
4825 444 2 -8.2999999999999996e-01 1.2856199552657765e+00 3.3220639547131650e+00 2.0276165307887855e+01 4 -1 0
5857 444 2 -8.2999999999999996e-01 2.2723583694956400e+00 5.5980398462867305e+00 1.7032592097474730e+01 -2 2 0
5991 444 1 4.1499999999999998e-01 2.2602501855580552e+00 6.3311668658776687e+00 2.3314938920534512e+01 2 0 0
3440 444 1 4.1499999999999998e-01 9.5266254532350274e+00 2.0635783443348044e+00 1.6614490897406561e+01 -1 2 0
4826 444 1 4.1499999999999998e-01 1.6775996808160489e+00 3.0909216260298185e+00 1.9434050697669591e+01 4 -1 0
4328 444 1 4.1499999999999998e-01 4.2299893905597443e+00 6.0131349001604963e+00 1.9127734582833849e+01 -5 2 0
3633 444 1 4.1499999999999998e-01 2.3297380513825510e+00 3.4182391562426298e+00 2.4159382616067791e+01 1 -2 0
5675 444 1 4.1499999999999998e-01 1.0240673856491069e+01 5.9977663162235819e+00 1.7848310839781639e+01 3 -4 0
4249 444 2 -8.2999999999999996e-01 2.3845525585700647e+00 2.4205560613220367e+00 2.2605610287365852e+01 0 3 0
3661 444 2 -8.2999999999999996e-01 1.1106832929647839e+01 2.5164878327077127e+00 2.3578540015230256e+01 -1 4 0
2090 444 1 4.1499999999999998e-01 2.7478126266056253e+00 1.4747913256764549e+00 2.4259182258277878e+01 3 -2 0
4827 444 1 4.1499999999999998e-01 3.5622363151135128e-01 3.1178990039425405e+00 2.0172381737152623e+01 4 -1 0
5858 444 1 4.1499999999999998e-01 2.3319026509736012e+00 6.5354947559286751e+00 1.7216615553721194e+01 -2 2 0
510 444 1 4.1499999999999998e-01 1.1251489864143620e+01 3.1887997150376175e+00 2.1952350870885208e+01 -2 2 0
4746 444 1 4.1499999999999998e-01 6.5533523007165364e+00 4.9772591730103954e-03 2.1563349526559108e+01 6 1 0
2091 444 1 4.1499999999999998e-01 1.9979516377309410e+00 2.4619933701104443e-01 2.4728399995571120e+01 3 -2 0
489 444 1 4.1499999999999998e-01 1.2866662672830935e+00 3.3891744236757138e+00 2.8271033372112761e+01 -1 3 0
2662 444 2 -8.2999999999999996e-01 1.1291588873114460e+01 3.7197639504440909e+00 3.1297850164249688e+01 -1 -1 0
2254 444 2 -8.2999999999999996e-01 1.0439448568808183e+01 4.4475885642561721e+00 2.5559651647248092e+01 0 5 0
3663 444 1 4.1499999999999998e-01 1.1231319886827752e+01 2.9294593988252191e+00 2.4433051153319028e+01 -1 4 0
5405 444 1 4.1499999999999998e-01 5.3922128451233036e+00 6.3544289649847459e+00 2.8123514238475202e+01 0 -2 0
4206 444 1 4.1499999999999998e-01 1.0025636093591462e+01 3.6521114448382036e-01 2.4424447716625753e+01 2 2 0
2255 444 1 4.1499999999999998e-01 1.0251798509085601e+01 5.3418596987867257e+00 2.5274521788490265e+01 0 5 0
5660 444 1 4.1499999999999998e-01 3.4053698839115945e+00 2.1137314480528216e-01 3.2154976569773609e+01 -2 -2 0
645 444 1 4.1499999999999998e-01 8.4868470616280334e+00 4.9275129487270947e-01 2.9280786761704661e+01 -2 4 0
1512 444 1 4.1499999999999998e-01 1.1270525969270965e+01 6.7231115610117312e-02 3.2109967493438063e+01 4 3 0
752 444 1 4.1499999999999998e-01 7.9311833117039106e+00 7.2969740753389312e-01 2.4474990743521811e+01 -2 0 0
493 444 2 -8.2999999999999996e-01 6.4992769482076822e+00 4.5936492787114727e+00 2.4617957380571667e+01 5 -5 0
494 444 1 4.1499999999999998e-01 5.5916583760700389e+00 4.8571381471528721e+00 2.4466187620467899e+01 5 -5 0
2089 444 2 -8.2999999999999996e-01 2.6199452661600491e+00 9.1164884378925803e-01 2.5022564389924941e+01 3 -2 0
487 444 2 -8.2999999999999996e-01 1.2918308706218533e+00 3.9755570623713168e+00 2.9027578912702779e+01 -1 3 0
804 444 1 4.1499999999999998e-01 8.2185996251161733e+00 5.6947645923166190e+00 2.6388954242101168e+01 2 0 0
3900 444 1 4.1499999999999998e-01 6.4311012340395235e-01 5.4687277862369150e+00 2.9261924063421748e+01 0 -2 0
5659 444 2 -8.2999999999999996e-01 3.1154632392021284e+00 5.9302277654013835e-01 3.1326405534080202e+01 -2 -2 0
3675 444 1 4.1499999999999998e-01 7.2519543336797163e+00 1.5435277665249545e+00 3.0704998182589438e+01 3 1 0
5661 444 1 4.1499999999999998e-01 3.9052299806612725e+00 6.2241544020670436e-01 3.0786371721380842e+01 -2 -2 0
488 444 1 4.1499999999999998e-01 9.7796417933124613e-01 3.4348866688096402e+00 2.9752420817069194e+01 -1 3 0
633 444 1 4.1499999999999998e-01 6.9585830021389956e+00 1.7937837504021730e+00 2.5753189880929785e+01 7 1 0
631 444 2 -8.2999999999999996e-01 6.8944935110157477e+00 2.5751543455894983e+00 2.6302357091592562e+01 7 1 0
632 444 1 4.1499999999999998e-01 6.7791001237320225e+00 3.2953438563720243e+00 2.5682482398762861e+01 7 1 0
1511 444 1 4.1499999999999998e-01 1.0683234114838207e+01 6.0025447334103765e-01 3.0820444543048694e+01 4 3 0
2664 444 1 4.1499999999999998e-01 1.1244024035177230e+01 2.7703649443114160e+00 3.1410150190505885e+01 -1 -1 0
5919 444 1 4.1499999999999998e-01 9.7498293534373115e+00 2.2810683695015972e+00 2.7476201014991656e+01 1 5 0
3673 444 2 -8.2999999999999996e-01 7.0039188904908576e+00 2.3870318821184275e+00 3.1083430488188970e+01 3 1 0
802 444 2 -8.2999999999999996e-01 8.3207880977668172e+00 5.5746995035393141e+00 2.7333080150812503e+01 2 0 0
2243 444 1 4.1499999999999998e-01 1.4794383984967638e+00 1.3144045619458085e+00 2.7873815537321914e+01 -2 0 0
5406 444 1 4.1499999999999998e-01 6.9012276548815894e+00 6.2785454619446668e+00 2.8218440387212727e+01 0 -2 0
1469 444 1 4.1499999999999998e-01 1.7553777927346179e+00 1.6780168670270255e+00 3.1191209917031685e+01 -2 0 0
2911 444 2 -8.2999999999999996e-01 8.9074759740425069e+00 4.5954012071948069e+00 3.1484650811853225e+01 -2 -2 0
1510 444 2 -8.2999999999999996e-01 1.1383838347775527e+01 7.5507143653456721e-01 3.1454019514756006e+01 4 3 0
5361 444 1 4.1499999999999998e-01 7.7658242057715849e+00 2.7152254293931755e+00 2.7746553623388163e+01 8 6 0
5360 444 1 4.1499999999999998e-01 7.9992917944668580e+00 2.7279799881446918e+00 2.9242289309798636e+01 8 6 0
1470 444 1 4.1499999999999998e-01 2.6676639255518153e-01 1.4899164517948329e+00 3.1392577984073043e+01 -2 0 0
5918 444 1 4.1499999999999998e-01 9.5338918125658818e+00 2.0956890194787001e+00 2.5989291257332720e+01 1 5 0
3632 444 1 4.1499999999999998e-01 2.4461364513905401e+00 3.4026610630320082e+00 2.5668721569009371e+01 1 -2 0
5990 444 1 4.1499999999999998e-01 2.4760724394176088e+00 5.4457650578257155e+00 2.4523814070654463e+01 2 0 0
2977 444 2 -8.2999999999999996e-01 3.7433011401156238e+00 3.2237862428552613e+00 2.9454981773359748e+01 -2 3 0
3631 444 2 -8.2999999999999996e-01 2.7661423457538770e+00 3.8572346200507597e+00 2.4889496943847860e+01 1 -2 0
548 444 1 4.1499999999999998e-01 4.3274001074414752e+00 4.6734129476631621e+00 3.0493197836779043e+01 2 0 0
2979 444 1 4.1499999999999998e-01 3.8990331222774843e+00 2.5353958984486331e+00 2.8808376737366061e+01 -2 3 0
5359 444 2 -8.2999999999999996e-01 8.4563123166211636e+00 2.7985808593701758e+00 2.8404208468832028e+01 8 6 0
5832 444 1 4.1499999999999998e-01 3.9294768884940399e+00 4.4771216784233543e+00 2.6922894796279323e+01 -2 -2 0
4212 444 1 4.1499999999999998e-01 1.0169156526047040e+01 6.3391009547694543e-01 2.7839787562375918e+01 0 -4 0
4205 444 1 4.1499999999999998e-01 1.1034600087810837e+01 2.0816289259914736e-01 2.5542134011849946e+01 2 2 0
5831 444 1 4.1499999999999998e-01 4.9803482096110461e+00 4.2433526632482277e+00 2.7987280391828570e+01 -2 -2 0
5830 444 2 -8.2999999999999996e-01 4.7171992159540741e+00 4.8626069915915888e+00 2.7306465611595453e+01 -2 -2 0
2913 444 1 4.1499999999999998e-01 8.4503601036671157e+00 3.7912046777477006e+00 3.1238590655987554e+01 -2 -2 0
1468 444 2 -8.2999999999999996e-01 9.3902683647238228e-01 2.1653085922198607e+00 3.1302338776601747e+01 -2 0 0
549 444 1 4.1499999999999998e-01 3.6134236672791111e+00 5.0287195985745008e+00 3.1780011618150365e+01 2 0 0
2978 444 1 4.1499999999999998e-01 2.8643440483477058e+00 3.5460544562637923e+00 2.9255459333817960e+01 -2 3 0
547 444 2 -8.2999999999999996e-01 4.3974317615136709e+00 5.2297344465360691e+00 3.1268977323984274e+01 2 0 0
2244 444 1 4.1499999999999998e-01 2.4294525832572704e+00 1.4357948720414009e+00 2.6701367934351282e+01 -2 0 0
2242 444 2 -8.2999999999999996e-01 2.2484259716828521e+00 1.7963039954089577e+00 2.7569409356625567e+01 -2 0 0
2465 444 1 4.1499999999999998e-01 1.8892867210340434e+00 3.7720382519511619e+00 3.1742741960274987e+01 1 -4 0
3674 444 1 4.1499999999999998e-01 6.5210381280223615e+00 2.1607507771889614e+00 3.1878323477933950e+01 3 1 0
2912 444 1 4.1499999999999998e-01 8.2079575413735331e+00 5.2187357057284975e+00 3.1680508403960669e+01 -2 -2 0
2464 444 2 -8.2999999999999996e-01 2.2458022625556118e+00 4.4056666445745458e+00 3.2365352657038720e+01 1 -4 0
3898 444 2 -8.2999999999999996e-01 5.2673981253930013e-01 6.2974011844176179e+00 2.9726671532746302e+01 0 -2 0
2256 444 1 4.1499999999999998e-01 1.1132085652845236e+01 4.5444279257773053e+00 2.6213187005719046e+01 0 5 0
643 444 2 -8.2999999999999996e-01 7.6921347944960754e+00 2.4223829787412274e-01 2.9751857334106383e+01 -2 4 0
2663 444 1 4.1499999999999998e-01 1.0381767119927158e+01 4.0131084790694143e+00 3.1346914101995342e+01 -1 -1 0
5917 444 2 -8.2999999999999996e-01 1.0152424716277107e+01 1.9036175298307809e+00 2.6694101457994918e+01 1 5 0
803 444 1 4.1499999999999998e-01 8.8596054386914265e+00 4.7881314818449487e+00 2.7418042469786979e+01 2 0 0
3512 444 1 4.1499999999999998e-01 5.1358875787659741e+00 6.1824108441363643e+00 2.5976375376135486e+01 -3 -2 0
4875 444 1 4.1499999999999998e-01 5.3421464144099113e+00 6.6686405365105870e+00 3.1248541092408185e+01 3 4 0
4210 444 2 -8.2999999999999996e-01 1.0149840990236720e+01 2.8733246896912590e-02 2.8581151344961221e+01 0 -4 0
1259 444 1 4.1499999999999998e-01 4.9081810961060834e-01 3.6956571978800867e+00 3.6360946911830268e+01 -2 -4 0
4231 444 2 -8.2999999999999996e-01 7.6948909837648882e+00 3.9503405875401143e-01 3.4559380347573310e+01 1 3 0
346 444 2 -8.2999999999999996e-01 7.1554640307883890e+00 6.4887593021709566e+00 3.4984781243741608e+01 -2 3 0
348 444 1 4.1499999999999998e-01 6.5706879587380600e+00 5.8931562491915210e+00 3.4516245450293546e+01 -2 3 0
3603 444 1 4.1499999999999998e-01 4.8495680377612915e+00 1.4265086056202869e+00 3.3204435482039798e+01 3 1 0
2113 444 2 -8.2999999999999996e-01 8.2641503391498592e+00 4.4337572986221288e+00 3.6301524619624303e+01 5 -2 0
3601 444 2 -8.2999999999999996e-01 5.6591227457820938e+00 1.9349400558232739e+00 3.3155952619631925e+01 3 1 0
347 444 1 4.1499999999999998e-01 7.6736688494366927e+00 5.9187373220655006e+00 3.5552910208927152e+01 -2 3 0
2290 444 2 -8.2999999999999996e-01 2.6122682579169909e-01 5.5345248049798945e+00 3.4033890933732614e+01 2 0 0
5798 444 1 4.1499999999999998e-01 5.9689822483167845e+00 3.6885132108782934e+00 3.3576349971771847e+01 -1 -1 0
2114 444 1 4.1499999999999998e-01 8.6615843948188704e+00 4.1629811629979070e+00 3.5473902596457769e+01 5 -2 0
902 444 1 4.1499999999999998e-01 1.0145331148350921e+01 2.4929182719909235e+00 3.4067030721492955e+01 -2 -2 0
4272 444 1 4.1499999999999998e-01 4.2560861646964238e-01 1.8694540537036393e+00 3.8172392776701862e+01 0 -4 0
2115 444 1 4.1499999999999998e-01 8.3739597577612166e+00 3.6783002896735906e+00 3.6878983131141531e+01 5 -2 0
2291 444 1 4.1499999999999998e-01 5.9552497137567106e-01 6.3647441386216572e+00 3.4373320837230182e+01 2 0 0
901 444 2 -8.2999999999999996e-01 9.5042443575569546e+00 3.1721501733880824e+00 3.4276514656319328e+01 -2 -2 0
5797 444 2 -8.2999999999999996e-01 5.7072736835954858e+00 4.6091291855537095e+00 3.3590752873508336e+01 -1 -1 0
1260 444 1 4.1499999999999998e-01 1.8375918473093840e+00 3.0160139940170136e+00 3.6233742164215734e+01 -2 -4 0
4270 444 2 -8.2999999999999996e-01 1.3012266122533375e-01 1.2457147434784013e+00 3.8835619488132210e+01 0 -4 0
5213 444 1 4.1499999999999998e-01 2.8560643460732171e+00 3.9391135658897651e+00 3.3986029746669068e+01 -4 -1 0
2466 444 1 4.1499999999999998e-01 1.4839471540716298e+00 4.7159705706868520e+00 3.2854761412095122e+01 1 -4 0
654 444 1 4.1499999999999998e-01 4.8231869940431309e-03 1.5169149908449340e+00 3.5619574741317642e+01 6 -1 0
5214 444 1 4.1499999999999998e-01 4.0193556816871379e+00 4.4375630784727536e+00 3.4816810418885609e+01 -4 -1 0
5799 444 1 4.1499999999999998e-01 5.3065000321855180e+00 4.7581203406905939e+00 3.2734356308718901e+01 -1 -1 0
3602 444 1 4.1499999999999998e-01 6.2138470749361261e+00 1.5691899355620516e+00 3.3844966750209203e+01 3 1 0
5212 444 2 -8.2999999999999996e-01 3.1110611735535341e+00 4.1434800531532385e+00 3.4885720458272807e+01 -4 -1 0
1258 444 2 -8.2999999999999996e-01 9.3549462099151759e-01 2.8620113445033675e+00 3.6514341799464951e+01 -2 -4 0
903 444 1 4.1499999999999998e-01 9.4361453068093279e+00 3.6928874276784072e+00 3.3476247717923954e+01 -2 -2 0
4232 444 1 4.1499999999999998e-01 7.8607763175637357e+00 1.3781462594131367e-02 3.3697196734506278e+01 1 3 0
3483 444 1 4.1499999999999998e-01 1.8956012119993384e+00 1.1004619761187939e-01 3.8703152853314265e+01 3 -4 0
6162 444 7 0.0000000000000000e+00 4.2285000000000004e+00 7.3259299999999996e+00 0.0000000000000000e+00 0 0 0
6164 444 7 -1.3890000000000000e-02 4.2285500000000003e+00 7.3259299999999996e+00 7.1781499999999996e+00 0 0 0
6165 444 7 0.0000000000000000e+00 2.5366499999999998e+00 7.3259299999999996e+00 2.3926400000000001e+00 0 0 0
6167 444 7 0.0000000000000000e+00 8.4509000000000001e-01 7.3259299999999996e+00 4.7824200000000001e+00 0 0 0