LAMMPS data file via write_data, version 11 Aug 2017, timestep = 5000000

2727 atoms
9 atom types
1560 bonds
5 bond types
1275 angles
3 angle types
945 dihedrals
2 dihedral types

0.0000000000000000e+00 3.0453600000000002e+01 xlo xhi
0.0000000000000000e+00 3.5164200000000001e+01 ylo yhi
0.0000000000000000e+00 5.0000000000000000e+01 zlo zhi

Masses

1 1.0079
2 15.9994
3 22.9898
4 15.9994
5 12.011
6 1.0079
7 107.868
8 15.9994
9 12.011

Angle Coeffs # harmonic

1 50 109.471
2 50 104.51
3 55 104.52

Dihedral Coeffs # charmm

1 0.111111 3 0 0
2 0.166667 3 0 0

Atoms # full

325 444 7 0.0000000000000000e+00 0.0000000000000000e+00 0.0000000000000000e+00 0.0000000000000000e+00 0 0 0
326 444 7 0.0000000000000000e+00 2.5377999999999998e+00 1.4651700000000001e+00 0.0000000000000000e+00 0 0 0
327 444 7 -6.2500000000000000e-02 5.0597700000000003e+00 5.8402200000000004e+00 7.1591800000000001e+00 0 0 0
328 444 7 -6.2500000000000000e-02 2.5367199999999999e+00 1.4594700000000000e+00 7.2366200000000003e+00 0 0 0
329 444 7 0.0000000000000000e+00 1.6918700000000000e+00 0.0000000000000000e+00 2.3925000000000001e+00 0 0 0
330 444 7 0.0000000000000000e+00 4.2296699999999996e+00 1.4651700000000001e+00 2.3925000000000001e+00 0 0 0
331 444 7 0.0000000000000000e+00 3.3837299999999999e+00 0.0000000000000000e+00 4.7852499999999996e+00 0 0 0
332 444 7 0.0000000000000000e+00 8.4592999999999996e-01 1.4651700000000001e+00 4.7852499999999996e+00 0 0 0
333 444 7 0.0000000000000000e+00 0.0000000000000000e+00 2.9303499999999998e+00 0.0000000000000000e+00 0 0 0
334 444 7 0.0000000000000000e+00 2.5377999999999998e+00 4.3955200000000003e+00 0.0000000000000000e+00 0 0 0
335 444 7 -6.2500000000000000e-02 4.7999999999999996e-03 2.9345300000000001e+00 7.1618100000000000e+00 0 0 0
336 444 7 -6.2500000000000000e-02 2.5282800000000001e+00 4.3833000000000002e+00 7.1607099999999999e+00 0 0 0
337 444 7 0.0000000000000000e+00 1.6918700000000000e+00 2.9303499999999998e+00 2.3925000000000001e+00 0 0 0
338 444 7 0.0000000000000000e+00 4.2296699999999996e+00 4.3955200000000003e+00 2.3925000000000001e+00 0 0 0
339 444 7 0.0000000000000000e+00 3.3837299999999999e+00 2.9303499999999998e+00 4.7852499999999996e+00 0 0 0
340 444 7 0.0000000000000000e+00 8.4592999999999996e-01 4.3955200000000003e+00 4.7852499999999996e+00 0 0 0
344 444 7 0.0000000000000000e+00 5.0755999999999997e+00 0.0000000000000000e+00 0.0000000000000000e+00 0 0 0
347 444 7 -6.2500000000000000e-02 7.6123200000000004e+00 1.4594700000000000e+00 7.2366200000000003e+00 0 0 0
348 444 7 0.0000000000000000e+00 6.7674700000000003e+00 0.0000000000000000e+00 2.3925000000000001e+00 0 0 0
351 444 7 0.0000000000000000e+00 5.9215299999999997e+00 1.4651700000000001e+00 4.7852499999999996e+00 0 0 0
352 444 7 0.0000000000000000e+00 5.0755999999999997e+00 2.9303499999999998e+00 0.0000000000000000e+00 0 0 0
354 444 7 -6.2500000000000000e-02 5.0804000000000000e+00 2.9345300000000001e+00 7.1618100000000000e+00 0 0 0
355 444 7 -6.2500000000000000e-02 7.6038800000000002e+00 4.3833000000000002e+00 7.1607099999999999e+00 0 0 0
356 444 7 0.0000000000000000e+00 6.7674700000000003e+00 2.9303499999999998e+00 2.3925000000000001e+00 0 0 0
359 444 7 0.0000000000000000e+00 5.9215299999999997e+00 4.3955200000000003e+00 4.7852499999999996e+00 0 0 0
360 444 7 0.0000000000000000e+00 0.0000000000000000e+00 5.8606999999999996e+00 0.0000000000000000e+00 0 0 0
361 444 7 0.0000000000000000e+00 2.5377999999999998e+00 7.3258700000000001e+00 0.0000000000000000e+00 0 0 0
363 444 7 -6.2500000000000000e-02 2.5367199999999999e+00 7.3201700000000001e+00 7.2366200000000003e+00 0 0 0
364 444 7 0.0000000000000000e+00 1.6918700000000000e+00 5.8606999999999996e+00 2.3925000000000001e+00 0 0 0
365 444 7 0.0000000000000000e+00 4.2296699999999996e+00 7.3258700000000001e+00 2.3925000000000001e+00 0 0 0
366 444 7 0.0000000000000000e+00 3.3837299999999999e+00 5.8606999999999996e+00 4.7852499999999996e+00 0 0 0
367 444 7 0.0000000000000000e+00 8.4592999999999996e-01 7.3258700000000001e+00 4.7852499999999996e+00 0 0 0
376 444 7 0.0000000000000000e+00 5.0755999999999997e+00 5.8606999999999996e+00 0.0000000000000000e+00 0 0 0
379 444 7 -6.2500000000000000e-02 7.6123200000000004e+00 7.3201700000000001e+00 7.2366200000000003e+00 0 0 0
380 444 7 0.0000000000000000e+00 6.7674700000000003e+00 5.8606999999999996e+00 2.3925000000000001e+00 0 0 0
383 444 7 0.0000000000000000e+00 5.9215299999999997e+00 7.3258700000000001e+00 4.7852499999999996e+00 0 0 0
345 444 7 0.0000000000000000e+00 7.6134000000000004e+00 1.4651700000000001e+00 0.0000000000000000e+00 0 0 0
346 444 7 -6.2500000000000000e-02 1.0135370000000000e+01 5.8402200000000004e+00 7.1591800000000001e+00 0 0 0
349 444 7 0.0000000000000000e+00 9.3052700000000002e+00 1.4651700000000001e+00 2.3925000000000001e+00 0 0 0
350 444 7 0.0000000000000000e+00 8.4593299999999996e+00 0.0000000000000000e+00 4.7852499999999996e+00 0 0 0
353 444 7 0.0000000000000000e+00 7.6134000000000004e+00 4.3955200000000003e+00 0.0000000000000000e+00 0 0 0
357 444 7 0.0000000000000000e+00 9.3052700000000002e+00 4.3955200000000003e+00 2.3925000000000001e+00 0 0 0
358 444 7 0.0000000000000000e+00 8.4593299999999996e+00 2.9303499999999998e+00 4.7852499999999996e+00 0 0 0
377 444 7 0.0000000000000000e+00 7.6134000000000004e+00 7.3258700000000001e+00 0.0000000000000000e+00 0 0 0
381 444 7 0.0000000000000000e+00 9.3052700000000002e+00 7.3258700000000001e+00 2.3925000000000001e+00 0 0 0
382 444 7 0.0000000000000000e+00 8.4593299999999996e+00 5.8606999999999996e+00 4.7852499999999996e+00 0 0 0
341 444 8 0.0000000000000000e+00 4.3329800000000001e+00 4.9780699999999998e+00 1.0011640000000000e+01 0 0 0
343 444 9 0.0000000000000000e+00 5.0862400000000001e+00 5.8191600000000001e+00 9.4147900000000000e+00 0 0 0
342 444 8 0.0000000000000000e+00 5.8363600000000000e+00 6.6433099999999996e+00 1.0038270000000001e+01 0 0 0
1436 444 1 4.1499999999999998e-01 8.2675338197337780e+00 3.0679457568979571e+00 1.2260161382978215e+01 3 3 0
1175 444 1 4.1499999999999998e-01 1.1824250400892067e+00 5.5905636735577620e+00 1.0121449839165964e+01 -1 5 0
1435 444 2 -8.2999999999999996e-01 7.9054238552722902e+00 3.8831657260243935e+00 1.1912994812333325e+01 3 3 0
939 444 1 4.1499999999999998e-01 6.9411304169733343e+00 5.0460518392926481e+00 1.2467575486036264e+01 1 -7 0
938 444 1 4.1499999999999998e-01 5.8058056991884133e+00 5.8005630775107351e+00 1.1809057662036839e+01 1 -7 0
937 444 2 -8.2999999999999996e-01 6.2343592867271287e+00 5.6640719079469672e+00 1.2654009610188371e+01 1 -7 0
1468 444 2 -8.2999999999999996e-01 9.5762216249779648e+00 3.8792641952404145e+00 9.9297485725856269e+00 -6 1 0
1174 444 2 -8.2999999999999996e-01 1.5847172201252799e+00 4.7899037839847578e+00 1.0458106121539410e+01 -1 5 0
1176 444 1 4.1499999999999998e-01 2.4846951392468903e+00 4.8186532749846291e+00 1.0133381568809156e+01 -1 5 0
1437 444 1 4.1499999999999998e-01 8.4030586037449595e+00 4.0446375671490999e+00 1.1111422377378386e+01 3 3 0
2520 444 1 4.1499999999999998e-01 8.7444476471000261e+00 1.8918654356032920e+00 1.3636004056641584e+01 -2 2 0
1082 444 1 4.1499999999999998e-01 8.4731551363237656e-01 3.2558543791599854e+00 1.0881369877099695e+01 3 1 0
2518 444 2 -8.2999999999999996e-01 8.7765376059895779e+00 1.3973414705297484e+00 1.2817072777174790e+01 -2 2 0
1958 444 1 4.1499999999999998e-01 9.1319765171772875e+00 5.6572128502573289e+00 9.8022852347144642e+00 -8 0 0
1022 444 1 4.1499999999999998e-01 3.8478553615742124e+00 5.1419837482414517e+00 1.2505639926556103e+01 0 8 0
1320 444 1 4.1499999999999998e-01 5.6606774662006023e+00 1.5626512485383355e+00 1.2121636701373813e+01 1 -1 0
1318 444 2 -8.2999999999999996e-01 5.7267905457261277e+00 1.1742191368903383e+00 1.2993979461057199e+01 1 -1 0
1021 444 2 -8.2999999999999996e-01 2.9520584148313418e+00 5.2928207793873243e+00 1.2807348777052299e+01 0 8 0
1957 444 2 -8.2999999999999996e-01 8.7059749435253480e+00 6.3852643806346192e+00 1.0254718494013746e+01 -8 0 0
1023 444 1 4.1499999999999998e-01 2.4026219963933486e+00 5.0292008825718737e+00 1.2069204256632064e+01 0 8 0
1959 444 1 4.1499999999999998e-01 7.7728446933503088e+00 6.2637168269320824e+00 1.0079429353148573e+01 -8 0 0
1138 444 2 -8.2999999999999996e-01 3.0619650436463570e+00 2.5638902497776868e+00 1.3492739105509726e+01 -3 1 0
2614 444 2 -8.2999999999999996e-01 5.5120347045977711e+00 2.1706116702200342e+00 1.0353757875829926e+01 5 5 0
2616 444 1 4.1499999999999998e-01 6.4555893141764198e+00 2.2740710272482754e+00 1.0230336047057948e+01 5 5 0
2615 444 1 4.1499999999999998e-01 5.1362039224699751e+00 2.9880531491312121e+00 1.0026996409392131e+01 5 5 0
1083 444 1 4.1499999999999998e-01 1.4958619849995958e+00 1.8895199593765115e+00 1.0947799677605692e+01 3 1 0
2522 444 1 4.1499999999999998e-01 7.5686752177091741e+00 6.9269179427625245e+00 1.3073014936659339e+01 0 -7 0
1139 444 1 4.1499999999999998e-01 3.0330820630582238e+00 3.3424893389990977e+00 1.4048779657067918e+01 -3 1 0
1349 444 1 4.1499999999999998e-01 3.9198700178626718e+00 1.1850197790660000e+00 1.0750260217642019e+01 -1 4 0
1278 444 1 4.1499999999999998e-01 3.4691865335541356e+00 4.9724571314710273e+00 1.5420771692912217e+01 -9 -2 0
1081 444 2 -8.2999999999999996e-01 6.5277383362309971e-01 2.3326669956380992e+00 1.1042957175035399e+01 3 1 0
1140 444 1 4.1499999999999998e-01 3.7850400349294806e+00 2.7279985049951181e+00 1.2887377340936597e+01 -3 1 0
2481 444 1 4.1499999999999998e-01 6.1775400621505234e+00 5.2614674638661088e+00 1.4347558595283346e+01 3 -3 0
1348 444 2 -8.2999999999999996e-01 3.0215291108437845e+00 8.6336415817834289e-01 1.0826110876358921e+01 -1 4 0
1727 444 1 4.1499999999999998e-01 1.6525073178662009e+00 6.5504431824048606e+00 1.2973736274891925e+01 2 7 0
2519 444 1 4.1499999999999998e-01 8.2556329857340174e+00 6.1307463397223838e-01 1.2989746030213070e+01 -2 2 0
2358 444 1 4.1499999999999998e-01 9.7025144580232539e+00 2.9738768141773442e-02 1.0047291116831030e+01 0 -3 0
2620 444 2 -8.2999999999999996e-01 3.3771966188397884e+00 1.0137002993930483e-01 1.4715547714077921e+01 3 -2 0
1999 444 2 -8.2999999999999996e-01 1.0671250526813891e+00 7.6648214275935151e+00 1.0320561855698477e+01 -9 5 0
2521 444 2 -8.2999999999999996e-01 8.4056387180822263e+00 7.3310557245478325e+00 1.2844111976188170e+01 0 -7 0
2675 444 1 4.1499999999999998e-01 1.0149967179469881e+01 6.6037863967776378e+00 1.5146366164810052e+01 6 -5 0
1726 444 2 -8.2999999999999996e-01 8.3811729582929095e-01 6.9806445590537063e+00 1.3234367020550842e+01 2 7 0
1731 444 1 4.1499999999999998e-01 4.0589915619495436e+00 7.2975842157601685e+00 1.2259778028710976e+01 -2 5 0
1728 444 1 4.1499999999999998e-01 4.3241404706862113e-01 7.2465309714314650e+00 1.2409174940523952e+01 2 7 0
2356 444 2 -8.2999999999999996e-01 9.8879772290048198e+00 9.5695903617603351e-01 1.0195945010936537e+01 0 -3 0
2621 444 1 4.1499999999999998e-01 2.9011628272211167e+00 8.0199049799421429e-01 1.4269728644702090e+01 3 -2 0
2523 444 1 4.1499999999999998e-01 8.5657718435434447e+00 7.0564463282243448e+00 1.1941239418193332e+01 0 -7 0
1729 444 2 -8.2999999999999996e-01 4.3397765891582685e+00 8.0959395949414468e+00 1.2707014345610240e+01 -2 5 0
1607 444 1 4.1499999999999998e-01 7.6099593245969350e+00 3.5125157877934026e+00 1.5237704001596244e+01 6 4 0
2001 444 1 4.1499999999999998e-01 1.2304479515178912e-01 7.6828190830114691e+00 1.0163652049922289e+01 -9 5 0
1319 444 1 4.1499999999999998e-01 6.4192531456639150e+00 5.1837074155804752e-01 1.2912798169158451e+01 1 -1 0
2357 444 1 4.1499999999999998e-01 9.4520579371804825e+00 1.1591778293068888e+00 1.1023781810347495e+01 0 -3 0
2480 444 1 4.1499999999999998e-01 5.4698366673754988e+00 4.9218757193420357e+00 1.5642058256926546e+01 3 -3 0
2364 444 1 4.1499999999999998e-01 5.3806797325071729e+00 1.9024904467074690e+00 1.4343327304706518e+01 -2 0 0
2479 444 2 -8.2999999999999996e-01 6.3262480212143952e+00 4.8872196728399029e+00 1.5215923276269793e+01 3 -3 0
2512 444 2 -8.2999999999999996e-01 4.2705377066970723e-01 3.8464435303226820e+00 1.6178585803465001e+01 -5 -3 0
2514 444 1 4.1499999999999998e-01 1.0289457133149091e+00 4.4722982689680002e+00 1.5775765746779273e+01 -5 -3 0
1276 444 2 -8.2999999999999996e-01 3.8936955825030402e+00 4.2253388857853471e+00 1.5842481770544270e+01 -9 -2 0
2718 444 1 4.1499999999999998e-01 1.9603238189840859e+00 8.5140662086995551e+00 1.4168012294272634e+01 3 4 0
2362 444 2 -8.2999999999999996e-01 5.2793219116479255e+00 1.9725127798839015e+00 1.5292567601444455e+01 -2 0 0
1277 444 1 4.1499999999999998e-01 3.3869166951340168e+00 4.0809749124297738e+00 1.6641585501904622e+01 -9 -2 0
1606 444 2 -8.2999999999999996e-01 7.8650815306618256e+00 2.6866558080149914e+00 1.5648921436518306e+01 6 4 0
2622 444 1 4.1499999999999998e-01 4.2516613227261537e+00 4.6158052557835283e-01 1.4863167634039783e+01 3 -2 0
2298 444 1 4.1499999999999998e-01 6.8754359431697996e+00 7.9708555487030299e+00 1.5958790349614604e+01 2 2 0
2676 444 1 4.1499999999999998e-01 9.5248327920648475e+00 6.5987849137070542e+00 1.3767570649263362e+01 6 -5 0
2296 444 2 -8.2999999999999996e-01 7.6719381917362606e+00 7.6677888131457914e+00 1.6394642569491825e+01 2 2 0
2363 444 1 4.1499999999999998e-01 4.8479166271421601e+00 2.8164628263154592e+00 1.5426247344123714e+01 -2 0 0
1608 444 1 4.1499999999999998e-01 7.0362646373157425e+00 2.2474125585343718e+00 1.5839603802855358e+01 6 4 0
2297 444 1 4.1499999999999998e-01 7.6324606367072647e+00 6.7135682787195305e+00 1.6330324435483202e+01 2 2 0
2716 444 2 -8.2999999999999996e-01 2.6558480443652681e+00 8.7048671780488736e+00 1.4797355899321536e+01 3 4 0
2537 444 1 4.1499999999999998e-01 9.4011262138955143e+00 2.2712832439794397e+00 1.5920237616304542e+01 2 3 0
1977 444 1 4.1499999999999998e-01 6.4153699103716217e+00 8.4542093342541129e+00 1.0297947134831658e+01 -3 2 0
2341 444 2 -8.2999999999999996e-01 2.5248408339477741e+00 6.4696572796974259e+00 1.6394605771536156e+01 0 1 0
1469 444 1 4.1499999999999998e-01 9.8136928892677133e+00 2.9554688388072266e+00 9.8494851144256899e+00 -6 1 0
1730 444 1 4.1499999999999998e-01 3.6401575420730783e+00 8.2783249581188016e+00 1.3334310826374326e+01 -2 5 0
2343 444 1 4.1499999999999998e-01 2.2980082088411242e+00 7.2525345214483838e+00 1.5892726418841733e+01 0 1 0
2000 444 1 4.1499999999999998e-01 1.3331150069063291e+00 8.5838005336643661e+00 1.0289581885774679e+01 -9 5 0
1919 444 1 4.1499999999999998e-01 4.6593326174966752e+00 8.5935010763499697e+00 1.5075434797329045e+01 5 -4 0
1421 444 1 4.1499999999999998e-01 8.6387460029815932e-01 2.5560429583670112e+00 1.7462379750456712e+01 4 -2 0
1420 444 2 -8.2999999999999996e-01 7.8159199370588983e-01 1.9411602018967089e+00 1.8191338681899293e+01 4 -2 0
2632 444 2 -8.2999999999999996e-01 2.9636067159240334e+00 8.2335435264617676e+00 2.1511277142200459e+01 2 1 0
1181 444 1 4.1499999999999998e-01 3.2987097723642829e+00 2.3947893332911541e-01 2.2955459961385813e+01 0 6 0
1536 444 1 4.1499999999999998e-01 7.9000001550473854e-03 7.9772180229210718e+00 1.8350123344497426e+01 -3 8 0
1273 444 2 -8.2999999999999996e-01 8.6420334586637555e+00 1.0792376770604920e-01 1.8266433137208438e+01 5 -2 0
1628 444 1 4.1499999999999998e-01 1.6152016447020387e-01 2.6789409538537838e+00 2.1405828457138512e+01 -4 0 0
2633 444 1 4.1499999999999998e-01 3.6893449553252369e+00 8.1368806798401820e+00 2.2127874770548058e+01 2 1 0
1180 444 2 -8.2999999999999996e-01 2.4892872987813841e+00 4.1833659500477982e-01 2.3434079894114852e+01 0 6 0
2342 444 1 4.1499999999999998e-01 2.1624271578372625e+00 6.6298182740539460e+00 1.7265947997792519e+01 0 1 0
2698 444 2 -8.2999999999999996e-01 8.2296508596746953e+00 6.7675998821611205e-01 2.0848251800784837e+01 3 6 0
2492 444 1 4.1499999999999998e-01 3.9330030430329392e+00 7.9493574303542056e+00 1.8282740769194248e+01 1 3 0
1837 444 2 -8.2999999999999996e-01 9.3321088209737226e+00 4.7364487743002393e+00 1.9587675116004949e+01 1 -5 0
1535 444 1 4.1499999999999998e-01 7.7954754131478043e-01 6.7467591499220401e+00 1.8777237423138107e+01 -3 8 0
1275 444 1 4.1499999999999998e-01 9.5234974651183286e+00 4.5304889357630634e-01 1.8124511713017512e+01 5 -2 0
2491 444 2 -8.2999999999999996e-01 4.8017464237012195e+00 8.2960400153306466e+00 1.8486033867340996e+01 1 3 0
1051 444 2 -8.2999999999999996e-01 9.8769691271203595e+00 7.3254424992637137e+00 1.8514590088122972e+01 -4 2 0
2102 444 1 4.1499999999999998e-01 3.7325731753895433e+00 8.4887622353820391e-01 1.9107499978688946e+01 4 -2 0
1178 444 1 4.1499999999999998e-01 2.3497108712186696e-01 3.8575732352541386e-01 2.1392905447721859e+01 -3 2 0
2460 444 1 4.1499999999999998e-01 6.2491019669129315e+00 7.3762597263432319e+00 2.1461041048621460e+01 0 1 0
1515 444 1 4.1499999999999998e-01 2.3189213263344677e-01 3.0487780337740440e+00 2.3647930477788908e+01 -1 -6 0
1527 444 1 4.1499999999999998e-01 2.2771726978462206e+00 3.2665522133700575e+00 2.2300357733861368e+01 0 6 0
1052 444 1 4.1499999999999998e-01 9.3315703817066744e+00 7.4218403958107206e+00 1.7733898145793585e+01 -4 2 0
2459 444 1 4.1499999999999998e-01 6.1845628601198266e+00 5.9267493070096000e+00 2.1029011243762266e+01 0 1 0
2103 444 1 4.1499999999999998e-01 2.5255103575936593e+00 1.7335738436073183e+00 1.8879015243302703e+01 4 -2 0
1525 444 2 -8.2999999999999996e-01 1.4914124788292817e+00 2.7312157580769298e+00 2.2410940238263031e+01 0 6 0
1354 444 2 -8.2999999999999996e-01 2.7393994113078786e+00 6.0505034814339194e+00 2.4324711548480781e+01 3 -1 0
1355 444 1 4.1499999999999998e-01 3.0849489595567499e+00 6.9396488359648032e+00 2.4245667827807445e+01 3 -1 0
2101 444 2 -8.2999999999999996e-01 3.4323580583491511e+00 1.7544971541866314e+00 1.9184665399997037e+01 4 -2 0
1622 444 1 4.1499999999999998e-01 2.1620841753120228e+00 5.7813184293921633e+00 2.1874199427565877e+01 8 1 0
2382 444 1 4.1499999999999998e-01 1.6735294201063755e+00 1.2196636314123099e-01 1.7131774972206436e+01 0 0 0
2458 444 2 -8.2999999999999996e-01 6.2487980337708748e+00 6.4830984765793822e+00 2.1805272569981724e+01 0 1 0
2700 444 1 4.1499999999999998e-01 8.5025900402512296e+00 7.0418317900257588e-01 1.9931199985176402e+01 3 6 0
2543 444 1 4.1499999999999998e-01 5.1223085818978999e+00 1.4779592376269919e+00 2.0729602499649978e+01 4 0 0
2542 444 2 -8.2999999999999996e-01 5.8283387219301543e+00 2.1216074097922060e+00 2.0788512790171055e+01 4 0 0
2544 444 1 4.1499999999999998e-01 6.6231489814849471e+00 1.5975610014478538e+00 2.0887935051366032e+01 4 0 0
1323 444 1 4.1499999999999998e-01 9.3246756000556985e+00 2.5101251400813327e+00 2.2213801307855707e+01 -1 -1 0
1322 444 1 4.1499999999999998e-01 8.0665460952343402e+00 2.8655803285407822e+00 2.2977120981410010e+01 -1 -1 0
1321 444 2 -8.2999999999999996e-01 9.0202601521073387e+00 2.9384640995252611e+00 2.3013857037582333e+01 -1 -1 0
1917 444 1 4.1499999999999998e-01 4.8938351552091941e+00 3.4185072329065602e+00 2.1800975603188203e+01 -2 1 0
1916 444 1 4.1499999999999998e-01 4.7847717130410885e+00 4.4066697585060979e+00 2.2942700605238013e+01 -2 1 0
2021 444 1 4.1499999999999998e-01 6.3364311594625580e+00 3.4924863677589313e+00 1.9974423219936980e+01 3 4 0
2020 444 2 -8.2999999999999996e-01 6.6173363212408436e+00 4.3799193724950802e+00 1.9751293629172913e+01 3 4 0
1168 444 2 -8.2999999999999996e-01 5.4161310268247940e+00 5.4251826332964503e+00 2.4156592027077508e+01 -6 -1 0
2365 444 2 -8.2999999999999996e-01 4.0144719048532842e+00 4.3625830746779943e+00 1.9133910691017121e+01 10 -1 0
935 444 1 4.1499999999999998e-01 3.7456634495590437e+00 2.7459097893951543e+00 2.4190424575656490e+01 4 3 0
2022 444 1 4.1499999999999998e-01 5.9241553308124315e+00 4.7152274395564220e+00 1.9182698454859523e+01 3 4 0
1169 444 1 4.1499999999999998e-01 5.8925079053215619e+00 5.9624086049295553e+00 2.3523593942978319e+01 -6 -1 0
1170 444 1 4.1499999999999998e-01 6.0270529998443445e+00 5.3142163425888187e+00 2.4885078620182210e+01 -6 -1 0
1915 444 2 -8.2999999999999996e-01 4.2598029241118862e+00 3.8281802795760158e+00 2.2389536302063959e+01 -2 1 0
1674 444 1 4.1499999999999998e-01 9.4557480109417167e+00 4.5263918028420589e+00 2.2554208982438848e+01 2 4 0
1672 444 2 -8.2999999999999996e-01 9.9258422013177334e+00 5.1655166607577030e+00 2.2018706053662815e+01 2 4 0
2367 444 1 4.1499999999999998e-01 3.3604453893796258e+00 4.5687142547901862e+00 1.9801736330614371e+01 10 -1 0
2366 444 1 4.1499999999999998e-01 4.0057822474343521e+00 3.4071562265975373e+00 1.9076327185712810e+01 10 -1 0
1621 444 2 -8.2999999999999996e-01 1.7392568064300178e+00 5.9332526291095480e+00 2.1028998397922610e+01 8 1 0
1356 444 1 4.1499999999999998e-01 3.4769987179114730e+00 5.4851205066357016e+00 2.4095536603355871e+01 3 -1 0
1623 444 1 4.1499999999999998e-01 2.0612172664153978e+00 6.7904973828191446e+00 2.0750242673395562e+01 8 1 0
1839 444 1 4.1499999999999998e-01 9.6348637818406608e+00 5.5235904647400700e+00 1.9134927813592974e+01 1 -5 0
1253 444 1 4.1499999999999998e-01 1.4820434028769791e+00 8.5898079026928311e+00 2.2509366307775732e+01 -1 0 0
2449 444 2 -8.2999999999999996e-01 4.1583210958586259e+00 8.3392223569742416e+00 2.4092980696319724e+01 -8 3 0
1929 444 1 4.1499999999999998e-01 1.1174581556575507e+00 5.9820325307063742e+00 2.4968497390794536e+01 -8 6 0
1130 444 1 4.1499999999999998e-01 9.6054850009959694e+00 2.3319323072241236e+00 2.4947498829210868e+01 5 3 0
1838 444 1 4.1499999999999998e-01 8.3889558736955969e+00 4.8652197686763605e+00 1.9688243056072803e+01 1 -5 0
2450 444 1 4.1499999999999998e-01 4.6906064679670454e+00 8.2871768465853552e+00 2.4886829496048566e+01 -8 3 0
1526 444 1 4.1499999999999998e-01 1.8145641363215226e+00 1.8992356016896277e+00 2.2756793945843572e+01 0 6 0
1534 444 2 -8.2999999999999996e-01 8.8138483882736351e-01 7.5863131391849592e+00 1.8328895491504955e+01 -3 8 0
2493 444 1 4.1499999999999998e-01 5.1134620995138507e+00 8.6627206266577321e+00 1.7658621709220842e+01 1 3 0
1487 444 1 4.1499999999999998e-01 9.0892823705608237e+00 8.2696557100821924e+00 2.2754202985484962e+01 -4 1 0
1488 444 1 4.1499999999999998e-01 7.6865482869959978e+00 8.3824865850146022e+00 2.3312326657092374e+01 -4 1 0
1673 444 1 4.1499999999999998e-01 9.7344588224072233e+00 4.9096903455572445e+00 2.1116398665155359e+01 2 4 0
1486 444 2 -8.2999999999999996e-01 8.5717649665500826e+00 8.7324155042516693e+00 2.3413188485315839e+01 -4 1 0
1182 444 1 4.1499999999999998e-01 1.7938434365668732e+00 1.0977742545239266e-01 2.2853234888607801e+01 0 6 0
1280 444 1 4.1499999999999998e-01 7.3485769592680816e-01 9.4059630848868936e-01 2.6254223027405711e+01 -2 1 0
2119 444 2 -8.2999999999999996e-01 2.9098618379769738e+00 2.1477737657581206e-01 2.6188684805717454e+01 0 -3 0
1131 444 1 4.1499999999999998e-01 9.9519100716208868e+00 1.1139204408154364e+00 2.5777156875441470e+01 5 3 0
2715 444 1 4.1499999999999998e-01 6.8696211875574074e+00 6.8432443284723474e+00 2.8381678815829662e+01 -7 4 0
2176 444 2 -8.2999999999999996e-01 3.6878287406502350e+00 4.5037329059586755e+00 2.6748775978462572e+01 -6 3 0
2178 444 1 4.1499999999999998e-01 3.5697913110260076e+00 5.1544987732108929e+00 2.6056820221912414e+01 -6 3 0
2177 444 1 4.1499999999999998e-01 3.7059562478650681e+00 3.6646437584205365e+00 2.6288523192181426e+01 -6 3 0
1034 444 1 4.1499999999999998e-01 5.6424834202786203e+00 7.4439555342240649e-01 2.8926289456557257e+01 3 4 0
1927 444 2 -8.2999999999999996e-01 2.7747452849423354e-01 5.9774720699464901e+00 2.5427451096891389e+01 -8 6 0
936 444 1 4.1499999999999998e-01 3.2909526886717559e+00 2.0136659259679068e+00 2.5434993789910955e+01 4 3 0
934 444 2 -8.2999999999999996e-01 3.9756338717309903e+00 2.5969665183085060e+00 2.5107573119836093e+01 4 3 0
2095 444 2 -8.2999999999999996e-01 1.7638127341170207e+00 4.8573235180707046e+00 3.0691596629950897e+01 4 -4 0
1764 444 1 4.1499999999999998e-01 4.6011332015486088e+00 6.1053912623709943e+00 2.9587359306184748e+01 10 -2 0
90 444 6 2.9999999999999999e-02 9.8290191163285687e+00 4.5807827754601655e+00 2.9753583911422623e+01 0 0 0
1620 444 1 4.1499999999999998e-01 3.7472389546145370e+00 4.1269904652233036e+00 2.8402842906385523e+01 10 3 0
2018 444 1 4.1499999999999998e-01 5.5421843750868875e+00 8.1388466802444839e+00 2.7491701657033346e+01 4 0 0
1035 444 1 4.1499999999999998e-01 4.2846258661463645e+00 6.1189285885691436e-01 2.8270118067040226e+01 3 4 0
1762 444 2 -8.2999999999999996e-01 4.4099842291908162e+00 7.0256076870388453e+00 2.9405986996680248e+01 10 -2 0
1033 444 2 -8.2999999999999996e-01 4.8475257245586523e+00 1.2382006885947026e+00 2.8725215957658460e+01 3 4 0
88 444 6 2.9999999999999999e-02 9.7500212043581307e+00 1.5276221854383527e+00 2.8612668542280577e+01 0 0 0
941 444 1 4.1499999999999998e-01 8.6838715491887921e+00 8.5683720952745510e+00 3.1261485277508967e+01 -8 -2 0
89 444 6 2.9999999999999999e-02 1.0057520695240738e+01 2.0278255066048803e+00 3.0341020952277685e+01 0 0 0
2714 444 1 4.1499999999999998e-01 6.0198539448515218e+00 7.5725003253122152e+00 2.9400490108079570e+01 -7 4 0
2096 444 1 4.1499999999999998e-01 2.1189176285179561e+00 5.0203244073354867e+00 3.1565417617711567e+01 4 -4 0
1618 444 2 -8.2999999999999996e-01 4.0186770587788523e+00 3.8408123561696588e+00 2.9274998457899933e+01 10 3 0
2384 444 1 4.1499999999999998e-01 1.0772363980974280e+00 7.2717478493268590e+00 2.9111234651572769e+01 6 -1 0
2385 444 1 4.1499999999999998e-01 1.6238194761771789e+00 6.4032288559567574e+00 3.0224256163833836e+01 6 -1 0
1246 444 2 -8.2999999999999996e-01 6.4173187083628225e+00 5.3002490074632336e+00 2.7238192694683036e+01 2 -5 0
2585 444 1 4.1499999999999998e-01 6.7287031510138418e+00 1.8060555475850775e+00 2.6183260561718679e+01 7 4 0
2584 444 2 -8.2999999999999996e-01 6.4712815046573651e+00 2.7277755658004974e+00 2.6203212712295546e+01 7 4 0
2586 444 1 4.1499999999999998e-01 5.5231890349304171e+00 2.7150517089090465e+00 2.6072099792756852e+01 7 4 0
91 444 6 2.9999999999999999e-02 9.3745522219892763e+00 4.2152385441574980e+00 2.7999899261893884e+01 0 0 0
2713 444 2 -8.2999999999999996e-01 6.8343232164718932e+00 7.6452976389362526e+00 2.8902923814418802e+01 -7 4 0
942 444 1 4.1499999999999998e-01 7.7971645687370392e+00 8.6672430811982082e+00 3.0038427341223194e+01 -8 -2 0
2097 444 1 4.1499999999999998e-01 2.4651785832354056e+00 4.3984207477215946e+00 3.0229290895618309e+01 4 -4 0
2383 444 2 -8.2999999999999996e-01 1.7612141498862597e+00 7.2399421522024872e+00 2.9780110383965205e+01 6 -1 0
1248 444 1 4.1499999999999998e-01 6.6657913751520113e+00 4.5182806875719974e+00 2.6745222308388019e+01 2 -5 0
1619 444 1 4.1499999999999998e-01 4.2450099965155381e+00 2.9172936824960685e+00 2.9164914339276734e+01 10 3 0
1763 444 1 4.1499999999999998e-01 3.5110802413006832e+00 7.1486455937244306e+00 2.9711055094167047e+01 10 -2 0
1247 444 1 4.1499999999999998e-01 5.4727125038142681e+00 5.2131952420955834e+00 2.7366150487465713e+01 2 -5 0
2139 444 1 4.1499999999999998e-01 3.8121723420488612e-02 6.4815947051677982e+00 2.7099624154530147e+01 9 -3 0
2017 444 2 -8.2999999999999996e-01 5.3194265024454044e+00 8.7564925166704235e+00 2.6795192937672308e+01 4 0 0
1967 444 1 4.1499999999999998e-01 2.4557279069301252e+00 8.7010485312127948e+00 2.8448750860719592e+01 -5 -2 0
2238 444 1 4.1499999999999998e-01 9.3883278637628056e+00 8.7649155570633681e+00 2.5090148841808389e+01 -4 0 0
362 444 7 -6.2500000000000000e-02 5.0597700000000003e+00 1.1700920000000000e+01 7.1591800000000001e+00 0 0 0
368 444 7 0.0000000000000000e+00 0.0000000000000000e+00 8.7910500000000003e+00 0.0000000000000000e+00 0 0 0
369 444 7 0.0000000000000000e+00 2.5377999999999998e+00 1.0256220000000001e+01 0.0000000000000000e+00 0 0 0
370 444 7 -6.2500000000000000e-02 4.7999999999999996e-03 8.7952300000000001e+00 7.1618100000000000e+00 0 0 0
371 444 7 -6.2500000000000000e-02 2.5282800000000001e+00 1.0244000000000000e+01 7.1607099999999999e+00 0 0 0
372 444 7 0.0000000000000000e+00 1.6918700000000000e+00 8.7910500000000003e+00 2.3925000000000001e+00 0 0 0
373 444 7 0.0000000000000000e+00 4.2296699999999996e+00 1.0256220000000001e+01 2.3925000000000001e+00 0 0 0
374 444 7 0.0000000000000000e+00 3.3837299999999999e+00 8.7910500000000003e+00 4.7852499999999996e+00 0 0 0
375 444 7 0.0000000000000000e+00 8.4592999999999996e-01 1.0256220000000001e+01 4.7852499999999996e+00 0 0 0
384 444 7 0.0000000000000000e+00 5.0755999999999997e+00 8.7910500000000003e+00 0.0000000000000000e+00 0 0 0
386 444 7 -6.2500000000000000e-02 5.0804000000000000e+00 8.7952300000000001e+00 7.1618100000000000e+00 0 0 0
387 444 7 -6.2500000000000000e-02 7.6038800000000002e+00 1.0244000000000000e+01 7.1607099999999999e+00 0 0 0
388 444 7 0.0000000000000000e+00 6.7674700000000003e+00 8.7910500000000003e+00 2.3925000000000001e+00 0 0 0
391 444 7 0.0000000000000000e+00 5.9215299999999997e+00 1.0256220000000001e+01 4.7852499999999996e+00 0 0 0
392 444 7 0.0000000000000000e+00 0.0000000000000000e+00 1.1721399999999999e+01 0.0000000000000000e+00 0 0 0
393 444 7 0.0000000000000000e+00 2.5377999999999998e+00 1.3186570000000000e+01 0.0000000000000000e+00 0 0 0
394 444 7 -6.2500000000000000e-02 5.0597700000000003e+00 1.7561620000000001e+01 7.1591800000000001e+00 0 0 0
395 444 7 -6.2500000000000000e-02 2.5367199999999999e+00 1.3180870000000001e+01 7.2366200000000003e+00 0 0 0
396 444 7 0.0000000000000000e+00 1.6918700000000000e+00 1.1721399999999999e+01 2.3925000000000001e+00 0 0 0
397 444 7 0.0000000000000000e+00 4.2296699999999996e+00 1.3186570000000000e+01 2.3925000000000001e+00 0 0 0
398 444 7 0.0000000000000000e+00 3.3837299999999999e+00 1.1721399999999999e+01 4.7852499999999996e+00 0 0 0
399 444 7 0.0000000000000000e+00 8.4592999999999996e-01 1.3186570000000000e+01 4.7852499999999996e+00 0 0 0
400 444 7 0.0000000000000000e+00 0.0000000000000000e+00 1.4651750000000000e+01 0.0000000000000000e+00 0 0 0
401 444 7 0.0000000000000000e+00 2.5377999999999998e+00 1.6116920000000000e+01 0.0000000000000000e+00 0 0 0
402 444 7 -6.2500000000000000e-02 4.7999999999999996e-03 1.4655930000000000e+01 7.1618100000000000e+00 0 0 0