LAMMPS data file via write_data, version 11 Aug 2017, timestep = 500000

7584 atoms
7 atom types
4480 bonds
5 bond types
2780 angles
3 angle types
900 dihedrals
2 dihedral types

0.0000000000000000e+00 4.5679949999999998e+01 xlo xhi
0.0000000000000000e+00 4.6885919999999999e+01 ylo yhi
0.0000000000000000e+00 6.5000000000000000e+01 zlo zhi

Masses

1 1.0079
2 15.9994
3 22.9898
4 15.9994
5 12.011
6 1.0079
7 107.868

Angle Coeffs # harmonic

1 50 109.471
2 50 104.51
3 55 104.52

Dihedral Coeffs # charmm

1 0.111111 3 0 0
2 0.333333 3 0 0

Atoms # full

6433 444 7 0.0000000000000000e+00 1.6907200000000000e+00 0.0000000000000000e+00 0.0000000000000000e+00 0 0 0
6434 444 7 0.0000000000000000e+00 4.2285000000000004e+00 1.4651900000000000e+00 0.0000000000000000e+00 0 0 0
6435 444 7 -4.1669999999999999e-02 1.6907700000000001e+00 0.0000000000000000e+00 7.1781499999999996e+00 0 0 0
6436 444 7 -4.1669999999999999e-02 4.2285500000000003e+00 1.4651900000000000e+00 7.1781499999999996e+00 0 0 0
6437 444 7 0.0000000000000000e+00 2.5366499999999998e+00 1.4651900000000000e+00 2.3926400000000001e+00 0 0 0
6438 444 7 0.0000000000000000e+00 5.0744199999999999e+00 0.0000000000000000e+00 2.3926400000000001e+00 0 0 0
6439 444 7 0.0000000000000000e+00 8.4509000000000001e-01 1.4651900000000000e+00 4.7824200000000001e+00 0 0 0
6440 444 7 0.0000000000000000e+00 3.3828600000000000e+00 0.0000000000000000e+00 4.7824499999999999e+00 0 0 0
6441 444 7 0.0000000000000000e+00 1.6907200000000000e+00 2.9303699999999999e+00 0.0000000000000000e+00 0 0 0
6442 444 7 0.0000000000000000e+00 4.2285000000000004e+00 4.3955599999999997e+00 0.0000000000000000e+00 0 0 0
6443 444 7 -4.1669999999999999e-02 1.6907700000000001e+00 2.9303699999999999e+00 7.1781899999999998e+00 0 0 0
6444 444 7 -4.1669999999999999e-02 4.2285500000000003e+00 4.3955599999999997e+00 7.1781600000000001e+00 0 0 0
6445 444 7 0.0000000000000000e+00 2.5366499999999998e+00 4.3955599999999997e+00 2.3926400000000001e+00 0 0 0
6446 444 7 0.0000000000000000e+00 5.0744199999999999e+00 2.9303699999999999e+00 2.3926400000000001e+00 0 0 0
6447 444 7 0.0000000000000000e+00 8.4509000000000001e-01 4.3955599999999997e+00 4.7824499999999999e+00 0 0 0
6448 444 7 0.0000000000000000e+00 3.3828700000000000e+00 2.9303699999999999e+00 4.7824400000000002e+00 0 0 0
112 444 4 -4.0000000000000002e-01 1.7470863032656503e+00 2.7252541063891793e+00 1.5320669529001533e+01 1 3 0
136 444 6 2.9999999999999999e-02 3.5610413407123338e+00 3.2089153949166187e+00 1.4652027499831265e+01 1 3 0
118 444 5 1.4000000000000001e-01 2.0044644125686748e+00 4.5986718045532289e+00 1.3782583067024564e+01 1 3 0
120 444 5 1.4000000000000001e-01 2.6348766538201560e+00 3.7132117841157650e+00 1.4877313641715974e+01 1 3 0
133 444 6 2.9999999999999999e-02 2.7541055861800419e+00 5.2455735164270267e+00 1.3337414112368986e+01 1 3 0
110 444 4 -4.0000000000000002e-01 1.6348269541575231e+00 3.6592981411281631e+00 1.2810255431016216e+01 1 3 0
2564 444 1 4.1499999999999998e-01 2.9182228305063793e+00 2.2702420566262926e+00 1.1534933501401007e+01 0 -2 0
2023 444 2 -8.2999999999999996e-01 5.1483067547758639e+00 3.7696918174978187e+00 1.0392047573330151e+01 -1 -3 0
2024 444 1 4.1499999999999998e-01 5.0546916695337680e+00 4.6200872156838280e+00 1.0821344529988497e+01 -1 -3 0
126 444 6 2.9999999999999999e-02 8.0321276596570801e-01 5.7259131949089781e-01 1.0363816438882340e+01 1 3 0
2565 444 1 4.1499999999999998e-01 4.1552483041485528e+00 2.3073468986006205e+00 1.0662989511223600e+01 0 -2 0
2563 444 2 -8.2999999999999996e-01 3.6553182131879232e+00 1.7335599033524751e+00 1.1243567019972499e+01 0 -2 0
132 444 6 2.9999999999999999e-02 1.0729541646848575e+00 5.0827774776240968e+00 1.4146178222888105e+01 1 3 0
116 444 5 1.4000000000000001e-01 1.0015870042162240e+00 4.2753734063457882e+00 1.1690514342146869e+01 1 3 0
128 444 6 2.9999999999999999e-02 1.7227158550441599e+00 4.6008568689157645e+00 1.0939657703243723e+01 1 3 0
137 444 6 2.9999999999999999e-02 2.9154769474918267e+00 4.3581202526551639e+00 1.5710259929099140e+01 1 3 0
129 444 6 2.9999999999999999e-02 2.5260807657684131e-01 5.0072989195978144e+00 1.1917477972798832e+01 1 3 0
1334 444 1 4.1499999999999998e-01 2.5748013247147683e+00 1.4132883922720890e-01 1.6091400177545673e+01 3 0 0
125 444 6 2.9999999999999999e-02 4.4712176333948572e-01 3.0002060698197637e+00 1.0145091668548531e+01 1 3 0
113 444 4 -4.0000000000000002e-01 5.2005174613087879e-01 8.4443954531335708e-01 1.5605766641127047e+01 1 3 0
109 444 4 -4.0000000000000002e-01 8.3889503170986601e-01 1.9616533489583881e+00 1.1835647106370304e+01 1 3 0
114 444 5 1.4000000000000001e-01 2.1900059722228429e-01 3.0972555249284337e+00 1.1201738778952169e+01 1 3 0
115 444 5 1.4000000000000001e-01 3.4154192290047058e-01 7.8930605946124788e-01 1.1265736354967876e+01 1 3 0
2029 444 2 -8.2999999999999996e-01 5.1899437704087745e+00 2.3465289795253930e-01 1.2752793872416678e+01 -2 -1 0
2031 444 1 4.1499999999999998e-01 4.5501065825419529e+00 8.3452256027770799e-01 1.2369392465686891e+01 -2 -1 0
1308 444 1 4.1499999999999998e-01 8.4335776026283737e-01 2.5469783152622685e+00 2.0357073459911124e+01 -1 1 0
1121 444 1 4.1499999999999998e-01 1.0931132249122526e+00 3.7675252699664451e-02 1.9650235350018768e+01 -1 2 0
2314 444 2 -8.2999999999999996e-01 1.6293957478519365e+00 7.4578693128870790e-02 2.2625033895578841e+01 -3 -4 0
2315 444 1 4.1499999999999998e-01 1.5623389393909808e+00 9.8661140025297844e-01 2.2907757059300323e+01 -3 -4 0
122 444 5 1.4000000000000001e-01 7.0952703732178046e-01 3.1210421346051911e+00 1.6352889365963950e+01 1 3 0
141 444 6 2.9999999999999999e-02 1.0827917085436509e+00 3.4445204059601875e+00 1.7240223591426105e+01 1 3 0
1307 444 1 4.1499999999999998e-01 1.7152435730126174e+00 3.7533102897089399e+00 2.0633611773881320e+01 -1 1 0
1384 444 2 -8.2999999999999996e-01 3.9311059620131514e+00 1.3448416128687142e+00 1.8866734456625945e+01 0 0 0
1385 444 1 4.1499999999999998e-01 3.8039679176763812e+00 8.8499117311817344e-01 1.8036911975117931e+01 0 0 0
1386 444 1 4.1499999999999998e-01 3.1618172467303647e+00 1.1159098502253748e+00 1.9388286910036939e+01 0 0 0
3816 444 1 4.1499999999999998e-01 4.2636029928523422e+00 2.9909208297881387e+00 1.8425530387798883e+01 3 0 0
3814 444 2 -8.2999999999999996e-01 4.0358957168572243e+00 3.9190101286407555e+00 1.8370471265261937e+01 3 0 0
3815 444 1 4.1499999999999998e-01 4.8251911268354153e+00 4.3399702355219327e+00 1.8029828921204192e+01 3 0 0
6310 444 2 -8.2999999999999996e-01 2.5640940702415116e+00 2.6470092900841626e+00 2.3577240644859085e+01 -3 -2 0
6312 444 1 4.1499999999999998e-01 2.2344838456532909e+00 3.2855848341077047e+00 2.4209546290620370e+01 -3 -2 0
690 444 1 4.1499999999999998e-01 3.0748141159435152e+00 5.4613934339666210e+00 1.8764069186760654e+01 3 -1 0
2268 444 1 4.1499999999999998e-01 5.0617709556869830e+00 1.2381462724464427e+00 2.0520905304152311e+01 -2 0 0
6311 444 1 4.1499999999999998e-01 2.6661503389347869e+00 3.1437898562969968e+00 2.2765436320243481e+01 -3 -2 0
4249 444 2 -8.2999999999999996e-01 3.5275136299442043e+00 3.9371557960872048e+00 2.1174305418235470e+01 1 -2 0
1120 444 2 -8.2999999999999996e-01 1.4792567057813932e+00 7.7013314830032864e-01 2.0130475425393154e+01 -1 2 0
5366 444 1 4.1499999999999998e-01 4.6956843877421239e-01 5.0184551354858797e+00 2.3181479271149954e+01 2 -2 0
5891 444 1 4.1499999999999998e-01 4.8856145786129836e+00 4.6072396581365922e+00 2.4198240710712245e+01 -1 4 0
1306 444 2 -8.2999999999999996e-01 8.0791776617286803e-01 3.4970271695021844e+00 2.0468352459707720e+01 -1 1 0
4250 444 1 4.1499999999999998e-01 4.2432324077840065e+00 4.5504924661400317e+00 2.1341031772349734e+01 1 -2 0
4400 444 1 4.1499999999999998e-01 5.2617520709785071e+00 2.1031622809765333e+00 2.3233666150453097e+01 1 1 0
1122 444 1 4.1499999999999998e-01 1.4521413062145083e+00 4.9684348744972096e-01 2.1047432018691435e+01 -1 2 0
123 444 5 1.4000000000000001e-01 9.4535054896797879e-02 1.7390900457661251e+00 1.6664302353745487e+01 1 3 0
4251 444 1 4.1499999999999998e-01 3.6148293178065773e+00 3.7125510097630872e+00 2.0247935591657093e+01 1 -2 0
142 444 6 2.9999999999999999e-02 5.3150791769562977e-01 1.4599378402787906e+00 1.7662377075121153e+01 1 3 0
1344 444 1 4.1499999999999998e-01 5.2278118389808625e+00 4.1221350650190658e-01 1.6474774493365860e+01 -1 1 0
6196 444 2 -8.2999999999999996e-01 1.8733196925677682e+00 3.4338994722510314e+00 3.1946572322493498e+01 -3 -2 0
2288 444 1 4.1499999999999998e-01 2.1039098420666846e-01 4.7006077831314554e+00 2.9895206249461751e+01 1 1 0
2490 444 1 4.1499999999999998e-01 7.5003937756314620e-01 3.6526435910104498e+00 2.7237260359698816e+01 -1 4 0
2488 444 2 -8.2999999999999996e-01 1.3246560042645161e+00 4.3511581132969130e+00 2.7550510975506587e+01 -1 4 0
3709 444 2 -8.2999999999999996e-01 1.0764651585507323e-01 2.3579168521921083e+00 2.5994262932777051e+01 1 0 0
3418 444 2 -8.2999999999999996e-01 5.4142105479563307e+00 7.0242244510522578e-01 2.7125623711005165e+01 2 -1 0
1424 444 1 4.1499999999999998e-01 4.8040236465677824e+00 5.9254251654010071e-01 3.2492758921285194e+01 4 1 0
2125 444 2 -8.2999999999999996e-01 5.3121671890899878e+00 3.0550469720148592e+00 2.8240045892602115e+01 1 0 0
5890 444 2 -8.2999999999999996e-01 4.3120271391966503e+00 5.3135297661858338e+00 2.4495535690670899e+01 -1 4 0
2489 444 1 4.1499999999999998e-01 1.3917665000566637e+00 4.9561106057072823e+00 2.6811754471630440e+01 -1 4 0
3404 444 1 4.1499999999999998e-01 4.9628350661413618e+00 2.9927772333208598e+00 3.2374565201344204e+01 -3 -2 0
6197 444 1 4.1499999999999998e-01 2.8261007486952265e+00 3.4793447084384432e+00 3.2026419923124394e+01 -3 -2 0
1621 444 2 -8.2999999999999996e-01 2.6456288439876769e+00 1.7051158316662813e+00 2.6498023151423926e+01 -1 -6 0
3403 444 2 -8.2999999999999996e-01 4.6996732075216396e+00 3.8197877006938712e+00 3.1970791948302459e+01 -3 -2 0
3711 444 1 4.1499999999999998e-01 1.0392701254409220e+00 2.1731298012507070e+00 2.6113271566316968e+01 1 0 0
2126 444 1 4.1499999999999998e-01 4.3835728349287546e+00 3.2402132201467575e+00 2.8380252195906937e+01 1 0 0
1623 444 1 4.1499999999999998e-01 3.3408810636297570e+00 1.3995538989513416e+00 2.7080679780450463e+01 -1 -6 0
3213 444 1 4.1499999999999998e-01 3.1699987012048778e+00 3.7600279240801182e+00 2.9982006484980481e+01 0 -4 0
3211 444 2 -8.2999999999999996e-01 3.1925796372525297e+00 4.4807473705961227e+00 2.9352494288541642e+01 0 -4 0
3212 444 1 4.1499999999999998e-01 2.3734345671023593e+00 4.3985937147345986e+00 2.8864144216466158e+01 0 -4 0
4403 444 1 4.1499999999999998e-01 1.6017307684392852e+00 6.1139219245169485e-01 2.9661619338635514e+01 -2 5 0
4402 444 2 -8.2999999999999996e-01 2.4018860480729765e+00 9.1266071957361450e-01 2.9231246242618479e+01 -2 5 0
4404 444 1 4.1499999999999998e-01 2.0943542186254627e+00 1.4012853303897230e+00 2.8467765848771958e+01 -2 5 0
1622 444 1 4.1499999999999998e-01 3.0028777842185166e+00 1.5905625256858487e+00 2.5617407886846269e+01 -1 -6 0
5892 444 1 4.1499999999999998e-01 4.7425011421184520e+00 5.6592313480583192e+00 2.5277466071295898e+01 -1 4 0
2289 444 1 4.1499999999999998e-01 4.8786309933293887e-01 4.3337536790450937e+00 3.1337538553466239e+01 1 1 0
2127 444 1 4.1499999999999998e-01 5.3202155691577593e+00 2.2778366738554765e+00 2.7681376843660917e+01 1 0 0
627 444 1 4.1499999999999998e-01 3.9572043106524686e+00 5.7602617426811271e+00 3.1275597259753887e+01 -1 1 0
473 444 1 4.1499999999999998e-01 1.7584198242902300e+00 1.4608839583710753e+00 3.4616757819227949e+01 -2 0 0
3405 444 1 4.1499999999999998e-01 4.6614739605618309e+00 4.4406169715040411e+00 3.2698352404542497e+01 -3 -2 0
1654 444 2 -8.2999999999999996e-01 7.6421780726454469e-01 2.6188963074279297e+00 3.7148286631995404e+01 0 4 0
472 444 2 -8.2999999999999996e-01 1.2531917133485813e+00 2.2664312643198414e+00 3.4506894516234475e+01 -2 0 0
1655 444 1 4.1499999999999998e-01 1.0147760464472277e+00 2.6609901668547775e+00 3.8071152015322355e+01 0 4 0
1425 444 1 4.1499999999999998e-01 3.9900567721059841e+00 1.1588906862706241e+00 3.3636700726664124e+01 4 1 0
1656 444 1 4.1499999999999998e-01 3.0677519399302405e-01 1.7825450756004146e+00 3.7061714445218293e+01 0 4 0
474 444 1 4.1499999999999998e-01 1.2175066224374398e+00 2.6487965587002114e+00 3.5383681350734527e+01 -2 0 0
1423 444 2 -8.2999999999999996e-01 4.6467168603755038e+00 1.3994132245790438e+00 3.2983111949699030e+01 4 1 0
6198 444 1 4.1499999999999998e-01 1.5728823840767188e+00 3.1570305534810723e+00 3.2812201556926560e+01 -3 -2 0
6449 444 7 0.0000000000000000e+00 1.6907200000000000e+00 5.8607399999999998e+00 0.0000000000000000e+00 0 0 0
6450 444 7 0.0000000000000000e+00 4.2285000000000004e+00 7.3259299999999996e+00 0.0000000000000000e+00 0 0 0
6451 444 7 -4.1669999999999999e-02 1.6907700000000001e+00 5.8607399999999998e+00 7.1781499999999996e+00 0 0 0
6452 444 7 -4.1669999999999999e-02 4.2285500000000003e+00 7.3259299999999996e+00 7.1781499999999996e+00 0 0 0
6453 444 7 0.0000000000000000e+00 2.5366499999999998e+00 7.3259299999999996e+00 2.3926400000000001e+00 0 0 0
6454 444 7 0.0000000000000000e+00 5.0744199999999999e+00 5.8607399999999998e+00 2.3926400000000001e+00 0 0 0
6455 444 7 0.0000000000000000e+00 8.4509000000000001e-01 7.3259299999999996e+00 4.7824200000000001e+00 0 0 0
6456 444 7 0.0000000000000000e+00 3.3828600000000000e+00 5.8607399999999998e+00 4.7824499999999999e+00 0 0 0
6457 444 7 0.0000000000000000e+00 1.6907200000000000e+00 8.7911099999999998e+00 0.0000000000000000e+00 0 0 0
6458 444 7 0.0000000000000000e+00 4.2285000000000004e+00 1.0256300000000000e+01 0.0000000000000000e+00 0 0 0
6459 444 7 -4.1669999999999999e-02 1.6907700000000001e+00 8.7911099999999998e+00 7.1781899999999998e+00 0 0 0
6460 444 7 -4.1669999999999999e-02 4.2285500000000003e+00 1.0256300000000000e+01 7.1781600000000001e+00 0 0 0
6461 444 7 0.0000000000000000e+00 2.5366499999999998e+00 1.0256300000000000e+01 2.3926400000000001e+00 0 0 0
6462 444 7 0.0000000000000000e+00 5.0744199999999999e+00 8.7911099999999998e+00 2.3926400000000001e+00 0 0 0
6463 444 7 0.0000000000000000e+00 8.4509000000000001e-01 1.0256300000000000e+01 4.7824499999999999e+00 0 0 0
6464 444 7 0.0000000000000000e+00 3.3828700000000000e+00 8.7911099999999998e+00 4.7824400000000002e+00 0 0 0
1569 444 1 4.1499999999999998e-01 2.4503130601816663e+00 9.8660267302416429e+00 1.0681752279632621e+01 -4 2 0
1567 444 2 -8.2999999999999996e-01 2.6973125503120694e+00 9.0110531676073844e+00 1.1034234035091268e+01 -4 2 0
1568 444 1 4.1499999999999998e-01 2.6887875285015777e+00 8.4272099922669117e+00 1.0275757322192671e+01 -4 2 0
2026 444 2 -8.2999999999999996e-01 5.7754702302218841e-01 7.9382701966911231e+00 1.2905471267909766e+01 -1 -3 0
2027 444 1 4.1499999999999998e-01 1.2806123737158244e+00 8.1931360143530814e+00 1.2307997641000535e+01 -1 -3 0
5304 444 1 4.1499999999999998e-01 4.6857297290031843e+00 7.3395065101117751e+00 1.4325237749124977e+01 -4 -5 0
3320 444 1 4.1499999999999998e-01 3.9493462041262921e+00 8.5503186790659704e+00 1.2632076484882393e+01 2 2 0
1819 444 2 -8.2999999999999996e-01 3.1673754083966532e+00 6.7715059172065839e+00 9.7310920323684957e+00 -5 0 0
3321 444 1 4.1499999999999998e-01 4.9611564950085985e+00 9.3259951375206054e+00 1.3448447202036855e+01 2 2 0
3319 444 2 -8.2999999999999996e-01 4.8075858138093492e+00 8.4701246445798706e+00 1.3048280214106112e+01 2 2 0
1328 444 1 4.1499999999999998e-01 1.5790487907617858e+00 6.7259284798036534e+00 9.7675782766199184e+00 -2 0 0
5303 444 1 4.1499999999999998e-01 4.9577387829700355e+00 7.0493553175309769e+00 1.5785963270188612e+01 -4 -5 0
2473 444 2 -8.2999999999999996e-01 3.7059810181149194e-01 1.1205782142428870e+01 1.0104272492445777e+01 5 -1 0
5302 444 2 -8.2999999999999996e-01 4.3207814066426229e+00 6.8924448068670801e+00 1.5088900585988677e+01 -4 -5 0
1820 444 1 4.1499999999999998e-01 3.3908576541095496e+00 6.2790199014950456e+00 8.9413167152249180e+00 -5 0 0
2381 444 1 4.1499999999999998e-01 1.8869747929066730e-01 9.5047173667455169e+00 1.5125697205808507e+01 -2 0 0
6240 444 1 4.1499999999999998e-01 4.2772398482960385e+00 1.1407884831702148e+01 1.3996518983223758e+01 2 4 0
2775 444 1 4.1499999999999998e-01 5.3694773677980816e+00 9.1134986986983577e+00 1.1137324696948550e+01 2 3 0
1327 444 2 -8.2999999999999996e-01 6.2476571049216401e-01 6.7507673268140129e+00 9.8379962769545770e+00 -2 0 0
1821 444 1 4.1499999999999998e-01 3.8405944466074962e+00 6.5258422145933528e+00 1.0365644891664934e+01 -5 0 0
2380 444 2 -8.2999999999999996e-01 1.0437106576800042e+00 9.0917537181338961e+00 1.5246715215043295e+01 -2 0 0
2382 444 1 4.1499999999999998e-01 1.1809874331308128e+00 8.5851424548647532e+00 1.4446257865744160e+01 -2 0 0
1329 444 1 4.1499999999999998e-01 3.2477158982405441e-01 6.9725806112371966e+00 8.9565008276854492e+00 -2 0 0
5783 444 1 4.1499999999999998e-01 5.1460419391185095e+00 1.1266007945003713e+01 1.0547927308953925e+01 0 1 0
3800 444 1 4.1499999999999998e-01 1.6683127323201514e+00 1.0970389234619352e+01 1.4757477646108709e+01 3 -2 0
5200 444 2 -8.2999999999999996e-01 5.0442753843977295e+00 6.3853638294650814e+00 1.1456761112329865e+01 1 1 0
5202 444 1 4.1499999999999998e-01 5.1540042108418307e+00 7.1116871072996659e+00 1.2070475991786170e+01 1 1 0
6238 444 2 -8.2999999999999996e-01 4.9743139692021847e+00 1.1064878764853541e+01 1.3437352757744218e+01 2 4 0
5155 444 2 -8.2999999999999996e-01 1.9610714635626008e+00 6.3348042095364354e+00 2.3770409463458144e+01 1 -4 0
3606 444 1 4.1499999999999998e-01 5.0420598539957897e+00 6.9464681327225204e+00 2.1374043762092860e+01 1 -5 0
5980 444 2 -8.2999999999999996e-01 5.6870209133314367e+00 8.4838833653546875e+00 2.3368962573471080e+01 0 1 0
1805 444 1 4.1499999999999998e-01 1.4206923492756300e+00 9.4250713460517748e+00 1.9664879736065828e+01 4 7 0
5156 444 1 4.1499999999999998e-01 2.0518278789959568e+00 7.2875635575580002e+00 2.3786053192491664e+01 1 -4 0
2579 444 1 4.1499999999999998e-01 9.0758014464286030e-01 7.7710957146784088e+00 1.7155976438368000e+01 4 2 0
1804 444 2 -8.2999999999999996e-01 4.9791400284471354e-01 9.2205921613070885e+00 1.9816208532402101e+01 4 7 0
1806 444 1 4.1499999999999998e-01 4.1897365995218627e-01 8.2919410778180431e+00 1.9598016648918620e+01 4 7 0
689 444 1 4.1499999999999998e-01 3.7038408102522178e+00 6.8225280275319120e+00 1.8972716103788990e+01 3 -1 0
688 444 2 -8.2999999999999996e-01 2.8606986111547021e+00 6.3694140911796193e+00 1.8978278736636224e+01 3 -1 0
5981 444 1 4.1499999999999998e-01 4.8460236452009546e+00 8.8989148422706261e+00 2.3560548636627793e+01 0 1 0
3257 444 1 4.1499999999999998e-01 4.9193977411434862e+00 8.3381984846389425e+00 1.7913566873972997e+01 2 1 0
2578 444 2 -8.2999999999999996e-01 6.0335675497591812e-01 7.1744300924876789e+00 1.7839840658772683e+01 4 2 0
3256 444 2 -8.2999999999999996e-01 4.5758293422006515e+00 9.0697851966775271e+00 1.8426376278916440e+01 2 1 0
6206 444 1 4.1499999999999998e-01 3.0407653883334236e+00 9.6353034246559641e+00 1.8060316839948516e+01 4 2 0
6207 444 1 4.1499999999999998e-01 2.0875346900829661e+00 9.5203703617760578e+00 1.6889831151916656e+01 4 2 0
5285 444 1 4.1499999999999998e-01 2.6979330928717151e+00 1.0206144930643173e+01 2.4231027096237362e+01 1 2 0
6205 444 2 -8.2999999999999996e-01 2.2060579001262428e+00 9.9661229782257958e+00 1.7728573460102325e+01 4 2 0
2580 444 1 4.1499999999999998e-01 1.3990561190620396e+00 6.9181482916428916e+00 1.8306119102513325e+01 4 2 0
59 444 6 2.9999999999999999e-02 5.5837900592127800e+00 1.1422501914384295e+01 2.1112764207625126e+01 0 0 0
5473 444 2 -8.2999999999999996e-01 5.6258927863356387e+00 8.3488848702422978e+00 2.0750654563445423e+01 4 4 0
3604 444 2 -8.2999999999999996e-01 4.9561913827595303e+00 6.1459071271672849e+00 2.1891692814135638e+01 1 -5 0
3258 444 1 4.1499999999999998e-01 4.8216953922995742e+00 8.8666320090175645e+00 1.9328878627863180e+01 2 1 0
5284 444 2 -8.2999999999999996e-01 2.9827984981171731e+00 9.3003323634452766e+00 2.4110249952365184e+01 1 2 0
1001 444 1 4.1499999999999998e-01 1.1862144610705003e+00 1.1383666878900577e+01 1.7715959079347243e+01 -1 -2 0
3605 444 1 4.1499999999999998e-01 4.8799207113823799e+00 6.4515907652515212e+00 2.2795557880907793e+01 1 -5 0
5157 444 1 4.1499999999999998e-01 2.8551140775803994e+00 6.0069411268533406e+00 2.3867494221666444e+01 1 -4 0
6290 444 1 4.1499999999999998e-01 4.7602305051306484e+00 9.1720701745010214e+00 2.9909258342165170e+01 -1 1 0
6254 444 1 4.1499999999999998e-01 4.7231926261403450e+00 9.5457728467862992e+00 3.2310920815483186e+01 -1 -3 0
6291 444 1 4.1499999999999998e-01 4.4684600808458281e+00 8.2162796816841155e+00 2.8772055757715975e+01 -1 1 0
2144 444 1 4.1499999999999998e-01 4.6262323810697548e-01 9.2133750806728099e+00 3.1232953366123848e+01 3 3 0
1874 444 1 4.1499999999999998e-01 2.8676422201827148e+00 7.3551773623130767e+00 2.6759469968178905e+01 -3 -4 0
625 444 2 -8.2999999999999996e-01 3.5602923568662663e+00 6.5459760717856765e+00 3.1651557711785671e+01 -1 1 0
2857 444 2 -8.2999999999999996e-01 1.1107646946124317e+00 7.2139380315499846e+00 3.1293816776367564e+01 0 4 0
626 444 1 4.1499999999999998e-01 3.4885282101966197e+00 7.1541156298202457e+00 3.0915862013302714e+01 -1 1 0
5036 444 1 4.1499999999999998e-01 9.3450158139534478e-01 7.1469476255747475e+00 2.6300210038128636e+01 3 -1 0
6289 444 2 -8.2999999999999996e-01 4.4453319806569276e+00 9.1442212872428907e+00 2.9005767769453886e+01 -1 1 0
1873 444 2 -8.2999999999999996e-01 2.5500811829610188e+00 8.1748101419552590e+00 2.6380538683274793e+01 -3 -4 0
6318 444 1 4.1499999999999998e-01 3.1013548716063335e+00 1.1335066940299436e+01 3.2367164858763338e+01 4 -3 0
5380 444 2 -8.2999999999999996e-01 4.0208594187889855e+00 6.5679102751156160e+00 2.8050270975575618e+01 -3 0 0
4979 444 1 4.1499999999999998e-01 3.8178932996254114e+00 1.0666318715171954e+01 2.8939498138163735e+01 6 3 0
1875 444 1 4.1499999999999998e-01 2.8789334144326588e+00 8.8544838640043722e+00 2.6968868243301227e+01 -3 -4 0
2859 444 1 4.1499999999999998e-01 1.8846369922994277e+00 6.7626315906629610e+00 3.1630976584413656e+01 0 4 0
2858 444 1 4.1499999999999998e-01 5.3931922432088730e-01 6.5114147111522565e+00 3.0983747144332170e+01 0 4 0
5381 444 1 4.1499999999999998e-01 4.7677911074317132e+00 6.1134536664144443e+00 2.7660663325546736e+01 -3 0 0
5037 444 1 4.1499999999999998e-01 8.5522431319211056e-01 6.3792888527020404e+00 2.4997785268300756e+01 3 -1 0
5035 444 2 -8.2999999999999996e-01 3.8458712155320818e-01 6.5297696241807577e+00 2.5817595023332313e+01 3 -1 0
5286 444 1 4.1499999999999998e-01 2.9123378472851145e+00 8.9085053091910673e+00 2.4980731824805972e+01 1 2 0
6253 444 2 -8.2999999999999996e-01 5.2395714313028021e+00 9.4005195425260215e+00 3.1518149557523490e+01 -1 -3 0
6317 444 1 4.1499999999999998e-01 1.6417712700403333e+00 1.1576277879305163e+01 3.2045717982125062e+01 4 -3 0
4978 444 2 -8.2999999999999996e-01 3.4661602440252137e+00 1.1554429287174274e+01 2.8878054301056149e+01 6 3 0
5382 444 1 4.1499999999999998e-01 3.5458654579121274e+00 5.8857716436078071e+00 2.8524928204579894e+01 -3 0 0
2096 444 1 4.1499999999999998e-01 2.6280955201866383e+00 8.1854192395954879e+00 3.5781978608232798e+01 -1 -2 0
5800 444 2 -8.2999999999999996e-01 3.2223892027445172e-01 6.8678427095850960e+00 3.4542890833133995e+01 0 -3 0
4880 444 1 4.1499999999999998e-01 3.2055585708154921e+00 9.0044737424110437e+00 3.3976853983343410e+01 -3 -4 0
4273 444 2 -8.2999999999999996e-01 3.0565594084691923e+00 9.8847952130253223e+00 3.6619320830147707e+01 0 4 0
1311 444 1 4.1499999999999998e-01 4.1035421684691071e+00 6.3654426517276530e+00 3.4685478892510311e+01 6 -3 0
1555 444 2 -8.2999999999999996e-01 4.1441244416226930e-01 1.1275793582481921e+01 3.3479701592631493e+01 1 4 0
2095 444 2 -8.2999999999999996e-01 2.7704473406675225e+00 7.4653528414539112e+00 3.5167590716080454e+01 -1 -2 0
2097 444 1 4.1499999999999998e-01 1.9036531839824991e+00 7.0774332092818524e+00 3.5047508213328427e+01 -1 -2 0
1309 444 2 -8.2999999999999996e-01 4.6067289423898252e+00 6.0043791261685051e+00 3.3955637772628151e+01 6 -3 0
1310 444 1 4.1499999999999998e-01 4.3814891801983293e+00 6.5610216564080721e+00 3.3210219782717985e+01 6 -3 0
4274 444 1 4.1499999999999998e-01 2.2077231416156122e+00 1.0299563602748558e+01 3.6465447444849296e+01 0 4 0
4275 444 1 4.1499999999999998e-01 3.1577207523780930e+00 9.8910967825460201e+00 3.7571139471746328e+01 0 4 0
4881 444 1 4.1499999999999998e-01 3.9635155593529219e+00 1.0224895282023727e+01 3.4454313639531712e+01 -3 -4 0
4879 444 2 -8.2999999999999996e-01 3.6106544433473697e+00 9.8137919314538937e+00 3.3665190481364185e+01 -3 -4 0
6465 444 7 0.0000000000000000e+00 1.6907200000000000e+00 1.1721480000000000e+01 0.0000000000000000e+00 0 0 0
6466 444 7 0.0000000000000000e+00 4.2285000000000004e+00 1.3186669999999999e+01 0.0000000000000000e+00 0 0 0
6467 444 7 -4.1669999999999999e-02 1.6907700000000001e+00 1.1721480000000000e+01 7.1781499999999996e+00 0 0 0
6468 444 7 -4.1669999999999999e-02 4.2285500000000003e+00 1.3186669999999999e+01 7.1781499999999996e+00 0 0 0
6469 444 7 0.0000000000000000e+00 2.5366499999999998e+00 1.3186669999999999e+01 2.3926400000000001e+00 0 0 0
6470 444 7 0.0000000000000000e+00 5.0744199999999999e+00 1.1721480000000000e+01 2.3926400000000001e+00 0 0 0
6471 444 7 0.0000000000000000e+00 8.4509000000000001e-01 1.3186669999999999e+01 4.7824200000000001e+00 0 0 0
6472 444 7 0.0000000000000000e+00 3.3828600000000000e+00 1.1721480000000000e+01 4.7824499999999999e+00 0 0 0
6473 444 7 0.0000000000000000e+00 1.6907200000000000e+00 1.4651850000000000e+01 0.0000000000000000e+00 0 0 0
6475 444 7 -4.1669999999999999e-02 1.6907700000000001e+00 1.4651850000000000e+01 7.1781899999999998e+00 0 0 0
6478 444 7 0.0000000000000000e+00 5.0744199999999999e+00 1.4651850000000000e+01 2.3926400000000001e+00 0 0 0
6480 444 7 0.0000000000000000e+00 3.3828700000000000e+00 1.4651850000000000e+01 4.7824400000000002e+00 0 0 0
6474 444 7 0.0000000000000000e+00 4.2285000000000004e+00 1.6117039999999999e+01 0.0000000000000000e+00 0 0 0
6476 444 7 -4.1669999999999999e-02 4.2285500000000003e+00 1.6117039999999999e+01 7.1781600000000001e+00 0 0 0
6477 444 7 0.0000000000000000e+00 2.5366499999999998e+00 1.6117039999999999e+01 2.3926400000000001e+00 0 0 0
6479 444 7 0.0000000000000000e+00 8.4509000000000001e-01 1.6117039999999999e+01 4.7824499999999999e+00 0 0 0
2329 444 2 -8.2999999999999996e-01 4.1470605326830476e+00 1.5373454798910702e+01 1.2485591884266688e+01 -2 -1 0
2331 444 1 4.1499999999999998e-01 3.9493574837544889e+00 1.4685857117833317e+01 1.1849702914859122e+01 -2 -1 0
2330 444 1 4.1499999999999998e-01 3.4919106870143968e+00 1.6050895342565653e+01 1.2318006511744031e+01 -2 -1 0
4204 444 2 -8.2999999999999996e-01 3.1356445856350370e+00 1.4148824087872409e+01 1.0358975976928189e+01 0 2 0
5803 444 2 -8.2999999999999996e-01 1.9012656188073491e+00 1.4102090402361176e+01 1.5802418450867730e+01 4 2 0
3952 444 2 -8.2999999999999996e-01 1.4999923646631788e+00 1.2324212114119042e+01 1.2085180186662804e+01 0 -2 0
3953 444 1 4.1499999999999998e-01 2.1389030675689824e+00 1.2944104159512920e+01 1.1733386478735950e+01 0 -2 0
4206 444 1 4.1499999999999998e-01 3.6953660390535901e+00 1.3381624517863820e+01 1.0239187968919165e+01 0 2 0
5805 444 1 4.1499999999999998e-01 1.9518405735095725e+00 1.3340094694327423e+01 1.5225324589004581e+01 4 2 0
5804 444 1 4.1499999999999998e-01 1.0519097261089081e+00 1.4496803240313472e+01 1.5604859568997961e+01 4 2 0
4205 444 1 4.1499999999999998e-01 3.4459619926441984e+00 1.4776538930442159e+01 9.7063588495909823e+00 0 2 0
2474 444 1 4.1499999999999998e-01 3.4797692552723025e-01 1.1845565660659295e+01 9.3926563615400820e+00 5 -1 0
4083 444 1 4.1499999999999998e-01 9.7899279490092928e-01 1.6437285273221296e+01 1.1415522207060775e+01 0 0 0
6260 444 1 4.1499999999999998e-01 4.4508810206033527e+00 1.5342108972789298e+01 1.4450649810252532e+01 5 0 0
6259 444 2 -8.2999999999999996e-01 4.6647395796113154e+00 1.5107469369039679e+01 1.5353667854440230e+01 5 0 0
6261 444 1 4.1499999999999998e-01 3.8340826720486643e+00 1.4815014605214008e+01 1.5728783874164874e+01 5 0 0
4081 444 2 -8.2999999999999996e-01 1.7890993399930499e+00 1.6811412554877727e+01 1.1761915095134617e+01 0 0 0
5782 444 2 -8.2999999999999996e-01 4.9745758784951262e+00 1.2176768274378164e+01 1.0308455163659746e+01 0 1 0
5784 444 1 4.1499999999999998e-01 4.9800696959536790e+00 1.2178348346027132e+01 9.3512722242856867e+00 0 1 0
3954 444 1 4.1499999999999998e-01 1.1007980226402727e+00 1.1926087080724793e+01 1.1311634979217452e+01 0 -2 0
3799 444 2 -8.2999999999999996e-01 2.1380676426364706e+00 1.1771176027459314e+01 1.4524448329865857e+01 3 -2 0
1332 444 1 4.1499999999999998e-01 3.1592320098900473e-01 1.5830894902444772e+01 9.7069569675216201e+00 -2 -3 0
4082 444 1 4.1499999999999998e-01 1.9973731796099443e+00 1.7528693128017949e+01 1.1163281291391662e+01 0 0 0
3801 444 1 4.1499999999999998e-01 1.7624509833596076e+00 1.2033846216294812e+01 1.3684121997532303e+01 3 -2 0
6239 444 1 4.1499999999999998e-01 5.2967728474225328e+00 1.1829145054861064e+01 1.2959702862062267e+01 2 4 0
393 444 6 2.9999999999999999e-02 2.0327926426664265e+00 1.6530549732328957e+01 1.7727256234935002e+01 1 -1 0
380 444 6 2.9999999999999999e-02 3.9392051971123490e+00 1.7403758899056591e+01 2.3436304711190807e+01 1 -1 0
388 444 6 2.9999999999999999e-02 1.4742873018736142e+00 1.6243974405787853e+01 2.0296729932419435e+01 1 -1 0
394 444 6 2.9999999999999999e-02 4.0311577756211960e+00 1.7291119438472396e+01 1.6895218219995371e+01 1 -1 0
1002 444 1 4.1499999999999998e-01 1.0208804835289469e+00 1.2377953399112595e+01 1.6586377667870558e+01 -1 -2 0
385 444 6 2.9999999999999999e-02 1.5817418475505887e+00 1.7322646388391689e+01 2.2269114654916446e+01 1 -1 0
5392 444 2 -8.2999999999999996e-01 3.5331130283010639e+00 1.4419700329490686e+01 2.3747538235376293e+01 0 -1 0
62 444 6 2.9999999999999999e-02 4.0765372177643995e+00 1.3335203680636917e+01 1.9941023863520030e+01 0 0 0