LAMMPS data file via write_data, version 11 Aug 2017, timestep = 500000

7440 atoms
7 atom types
4320 bonds
5 bond types
2520 angles
3 angle types
600 dihedrals
2 dihedral types

0.0000000000000000e+00 4.5679949999999998e+01 xlo xhi
0.0000000000000000e+00 4.6885919999999999e+01 ylo yhi
0.0000000000000000e+00 6.5000000000000000e+01 zlo zhi

Masses

1 1.0079
2 15.9994
3 22.9898
4 15.9994
5 12.011
6 1.0079
7 107.868

Angle Coeffs # harmonic

1 50 109.471
2 50 104.51
3 55 104.52

Dihedral Coeffs # charmm

1 0.111111 3 0 0
2 0.333333 3 0 0

Atoms # full

6289 444 7 0.0000000000000000e+00 1.6907200000000000e+00 0.0000000000000000e+00 0.0000000000000000e+00 0 0 0
6290 444 7 0.0000000000000000e+00 4.2285000000000004e+00 1.4651900000000000e+00 0.0000000000000000e+00 0 0 0
6291 444 7 -2.7779999999999999e-02 1.6907700000000001e+00 0.0000000000000000e+00 7.1781499999999996e+00 0 0 0
6292 444 7 -2.7779999999999999e-02 4.2285500000000003e+00 1.4651900000000000e+00 7.1781499999999996e+00 0 0 0
6293 444 7 0.0000000000000000e+00 2.5366499999999998e+00 1.4651900000000000e+00 2.3926400000000001e+00 0 0 0
6294 444 7 0.0000000000000000e+00 5.0744199999999999e+00 0.0000000000000000e+00 2.3926400000000001e+00 0 0 0
6295 444 7 0.0000000000000000e+00 8.4509000000000001e-01 1.4651900000000000e+00 4.7824200000000001e+00 0 0 0
6296 444 7 0.0000000000000000e+00 3.3828600000000000e+00 0.0000000000000000e+00 4.7824499999999999e+00 0 0 0
6297 444 7 0.0000000000000000e+00 1.6907200000000000e+00 2.9303699999999999e+00 0.0000000000000000e+00 0 0 0
6298 444 7 0.0000000000000000e+00 4.2285000000000004e+00 4.3955599999999997e+00 0.0000000000000000e+00 0 0 0
6299 444 7 -2.7779999999999999e-02 1.6907700000000001e+00 2.9303699999999999e+00 7.1781899999999998e+00 0 0 0
6300 444 7 -2.7779999999999999e-02 4.2285500000000003e+00 4.3955599999999997e+00 7.1781600000000001e+00 0 0 0
6301 444 7 0.0000000000000000e+00 2.5366499999999998e+00 4.3955599999999997e+00 2.3926400000000001e+00 0 0 0
6302 444 7 0.0000000000000000e+00 5.0744199999999999e+00 2.9303699999999999e+00 2.3926400000000001e+00 0 0 0
6303 444 7 0.0000000000000000e+00 8.4509000000000001e-01 4.3955599999999997e+00 4.7824499999999999e+00 0 0 0
6304 444 7 0.0000000000000000e+00 3.3828700000000000e+00 2.9303699999999999e+00 4.7824400000000002e+00 0 0 0
4323 444 1 4.1499999999999998e-01 9.4222507054225457e-01 3.8986623172578301e+00 1.2869693674557094e+01 -1 2 0
4275 444 1 4.1499999999999998e-01 5.0393326658379678e+00 1.8335423018831349e+00 1.0093968055143106e+01 6 -4 0
1798 444 2 -8.2999999999999996e-01 2.5398620005180277e+00 5.1964969763709368e+00 1.0093060125049028e+01 3 1 0
5209 444 2 -8.2999999999999996e-01 3.0139790210216844e+00 1.4563224938198978e+00 1.0029148685048661e+01 0 -3 0
5211 444 1 4.1499999999999998e-01 2.2079460028967075e+00 1.4469752972144794e+00 1.0545341761916056e+01 0 -3 0
5210 444 1 4.1499999999999998e-01 3.0617270053010546e+00 5.8183541239344505e-01 9.6428527947648135e+00 0 -3 0
4321 444 2 -8.2999999999999996e-01 1.3182720401034538e+00 4.5739192739276104e+00 1.3434360770032194e+01 -1 2 0
1144 444 2 -8.2999999999999996e-01 4.4387376347582794e+00 3.8167515281533246e+00 1.2165850048699632e+01 3 -3 0
1856 444 1 4.1499999999999998e-01 4.9965439530552356e+00 5.3668248209858573e+00 9.5298252580659355e+00 1 -3 0
806 444 1 4.1499999999999998e-01 1.3246219430301631e+00 1.9518465921754791e+00 1.5706552288729824e+01 1 6 0
807 444 1 4.1499999999999998e-01 2.7821549913900769e+00 2.1262301539091983e+00 1.5336304574819529e+01 1 6 0
1146 444 1 4.1499999999999998e-01 4.3266516845070120e+00 2.9790023719860734e+00 1.1716577872449481e+01 3 -3 0
805 444 2 -8.2999999999999996e-01 1.9151808012240421e+00 2.5076460269768539e+00 1.5198064720520852e+01 1 6 0
4322 444 1 4.1499999999999998e-01 1.8781402209346161e+00 4.0927817670498605e+00 1.4043693620757324e+01 -1 2 0
1800 444 1 4.1499999999999998e-01 2.1880374619614087e+00 4.5077872134069796e+00 9.5290296483409644e+00 3 1 0
1855 444 2 -8.2999999999999996e-01 5.6336978762704479e+00 5.2674979802633635e+00 1.0237215863147618e+01 1 -3 0
1857 444 1 4.1499999999999998e-01 5.1428426758871275e+00 4.8509484731575068e+00 1.0945580883142712e+01 1 -3 0
1145 444 1 4.1499999999999998e-01 3.5646350208685131e+00 4.2068450130713249e+00 1.2167830021782658e+01 3 -3 0
2568 444 1 4.1499999999999998e-01 1.2391989433612407e+00 1.2714197568389183e-02 1.3129310136872478e+01 0 -1 0
5121 444 1 4.1499999999999998e-01 4.8141727287743672e+00 3.5675229814536147e-01 1.5507827454380870e+01 5 -1 0
386 444 1 4.1499999999999998e-01 1.5047845098205717e-01 3.5143439175539610e+00 1.5218887416836434e+01 1 3 0
5119 444 2 -8.2999999999999996e-01 3.8620212810110877e+00 3.7068830593590413e-01 1.5605014362677366e+01 5 -1 0
1243 444 2 -8.2999999999999996e-01 5.6815523057495385e+00 5.8161982526933764e+00 1.5596756772662310e+01 -2 3 0
5789 444 1 4.1499999999999998e-01 1.7021598123955484e+00 5.2689738666196817e-01 2.2647301631250407e+01 -3 6 0
5788 444 2 -8.2999999999999996e-01 1.1775996608170574e+00 5.5959480779872817e-01 2.3447301552155114e+01 -3 6 0
3152 444 1 4.1499999999999998e-01 3.7543004488883738e+00 4.3168821503338233e+00 1.8680578493381425e+01 -4 -2 0
5601 444 1 4.1499999999999998e-01 4.7216217894575472e+00 4.9010033783861422e+00 1.6787848326552250e+01 1 0 0
6161 444 1 4.1499999999999998e-01 5.1784155802768161e+00 1.1716194561928945e+00 2.0034167321661840e+01 -2 1 0
5600 444 1 4.1499999999999998e-01 4.6238935393346763e+00 3.4576507819681859e+00 1.6341666852929421e+01 1 0 0
4543 444 2 -8.2999999999999996e-01 2.9346621636376619e-01 4.3169632139832634e+00 2.4313893340283489e+01 3 2 0
778 444 2 -8.2999999999999996e-01 2.4191488091364182e+00 3.8491648472520072e+00 2.2025690241098850e+01 2 4 0
6261 444 1 4.1499999999999998e-01 2.5679021054284989e+00 1.3374442545699945e+00 2.0294667356113251e+01 -3 2 0
6260 444 1 4.1499999999999998e-01 3.2744603711248845e+00 7.7597589976218395e-01 2.1510160775910197e+01 -3 2 0
4772 444 1 4.1499999999999998e-01 2.1908810110537242e+00 1.3573411091231640e+00 1.8000161775785458e+01 6 0 0
6259 444 2 -8.2999999999999996e-01 2.4668802928654165e+00 1.2119715849999424e+00 2.1238215554558714e+01 -3 2 0
779 444 1 4.1499999999999998e-01 2.6488481478256434e+00 2.9322574536003452e+00 2.1874856033321400e+01 2 4 0
780 444 1 4.1499999999999998e-01 2.5761790528106916e+00 4.2774667619270916e+00 2.1184185071385105e+01 2 4 0
5548 444 2 -8.2999999999999996e-01 3.9128986796366405e+00 5.7550515887047524e+00 2.3220319922374589e+01 -1 3 0
4545 444 1 4.1499999999999998e-01 1.1471681161371934e+00 4.3091258562790431e+00 2.3881037916737451e+01 3 2 0
3448 444 2 -8.2999999999999996e-01 5.0044294094765114e+00 2.1541519181828547e-01 2.1574326804171555e+01 4 0 0
843 444 1 4.1499999999999998e-01 5.3020458230381717e-01 2.6616415718282878e+00 2.1318975638467396e+01 2 3 0
4771 444 2 -8.2999999999999996e-01 2.9440313208889539e+00 9.8653616736072014e-01 1.8460054032770611e+01 6 0 0
6162 444 1 4.1499999999999998e-01 4.7134011131121509e+00 1.8994410392390864e+00 1.8790811811188107e+01 -2 1 0
5599 444 2 -8.2999999999999996e-01 4.3707224663055566e+00 4.0498374268003072e+00 1.7049799147537335e+01 1 0 0
3151 444 2 -8.2999999999999996e-01 3.5068129299451778e+00 4.5459692175648092e+00 1.9576402708729780e+01 -4 -2 0
4773 444 1 4.1499999999999998e-01 3.5325845067990391e+00 6.9754377984250893e-01 1.7762686401498353e+01 6 0 0
3153 444 1 4.1499999999999998e-01 4.2871179278148794e+00 4.9629328019150414e+00 1.9941776083446619e+01 -4 -2 0
5550 444 1 4.1499999999999998e-01 3.3596682337359143e+00 5.0385108036138435e+00 2.2909291743198466e+01 -1 3 0
6160 444 2 -8.2999999999999996e-01 5.4898855881513224e+00 1.7351509758804591e+00 1.9325893812311808e+01 -2 1 0
3449 444 1 4.1499999999999998e-01 5.6572094357879736e+00 6.0223623410524385e-01 2.2157834339760548e+01 4 0 0
5939 444 1 4.1499999999999998e-01 2.7782005908035501e-01 5.5135350376831997e+00 1.9233392213038815e+01 1 4 0
1359 444 1 4.1499999999999998e-01 2.4604059439966122e+00 5.7559656477662839e+00 1.8035842602484479e+01 2 -1 0
5549 444 1 4.1499999999999998e-01 4.5998975891625689e+00 5.8325763996367499e+00 2.2558311745483888e+01 -1 3 0
5790 444 1 4.1499999999999998e-01 3.9979881201261513e-01 3.9387063969805070e-02 2.3245703489956320e+01 -3 6 0
3762 444 1 4.1499999999999998e-01 4.4447297743566061e+00 4.8031574127511858e+00 3.1434610303732654e+01 3 0 0
3080 444 1 4.1499999999999998e-01 1.4370597917189172e+00 4.3175679753590557e-01 3.0971517114402978e+01 6 2 0
3081 444 1 4.1499999999999998e-01 1.3647971586409584e+00 3.9920218234198457e-01 3.2483341681609964e+01 6 2 0
212 444 6 2.9999999999999999e-02 1.5928075897537204e+00 5.1165138518799571e+00 3.2258117377935662e+01 0 0 0
5569 444 2 -8.2999999999999996e-01 3.9211679069102261e+00 5.3446893914168803e-01 2.7509280099687771e+01 -1 4 0
3766 444 2 -8.2999999999999996e-01 5.0062047711176163e+00 3.1563255974691855e+00 2.5296815119516985e+01 4 3 0
4184 444 1 4.1499999999999998e-01 3.5163078747909866e+00 7.2977167933552722e-01 2.5752290355041875e+01 0 2 0
3767 444 1 4.1499999999999998e-01 4.2237014190358462e+00 2.6212014779455859e+00 2.5429338952532213e+01 4 3 0
4185 444 1 4.1499999999999998e-01 2.5127376212390651e+00 7.5846859673795575e-01 2.4619188762457391e+01 0 2 0
737 444 1 4.1499999999999998e-01 1.6134553303168653e-01 5.1723942444703734e+00 2.5950882746021573e+01 1 -1 0
5543 444 1 4.1499999999999998e-01 2.0154739585714387e+00 6.2947711293909170e-01 2.9347231311899403e+01 -1 -1 0
5186 444 1 4.1499999999999998e-01 4.3418647788071035e-01 1.3528242525137870e+00 2.5016709012062517e+01 -1 1 0
5571 444 1 4.1499999999999998e-01 4.7865952955873823e+00 8.2376145741315543e-01 2.7798377441899174e+01 -1 4 0
1004 444 1 4.1499999999999998e-01 5.2639177593749951e+00 3.0065939313951304e+00 3.0995792712983622e+01 -3 -4 0
4018 444 2 -8.2999999999999996e-01 4.2365198524429983e+00 5.0088603787503203e+00 2.7202200906607288e+01 2 3 0
3760 444 2 -8.2999999999999996e-01 4.3102435328762887e+00 4.1255728423819598e+00 3.2097199532607277e+01 3 0 0
736 444 2 -8.2999999999999996e-01 2.9713358259694778e-01 5.5087563870787593e+00 2.6836690417033179e+01 1 -1 0
3761 444 1 4.1499999999999998e-01 3.4395849321847529e+00 3.7752390722118716e+00 3.1908912999955927e+01 3 0 0
1933 444 2 -8.2999999999999996e-01 2.6431258129902718e-01 4.0796017708376064e+00 2.9184463541652079e+01 -4 2 0
2613 444 1 4.1499999999999998e-01 1.8317367858263875e+00 3.6319669262949796e+00 3.0460685381628689e+01 -2 3 0
5570 444 1 4.1499999999999998e-01 3.3339259026682306e+00 1.2480939627565781e+00 2.7758515386696114e+01 -1 4 0
2612 444 1 4.1499999999999998e-01 1.6174303754080126e+00 2.3401495098015448e+00 3.1220406421723297e+01 -2 3 0
1489 444 2 -8.2999999999999996e-01 1.4172632467265287e+00 1.8998708881745481e+00 2.8035561196964796e+01 0 -2 0
1490 444 1 4.1499999999999998e-01 1.3710603716442697e+00 2.8320089654716614e+00 2.8248204139398659e+01 0 -2 0
3079 444 2 -8.2999999999999996e-01 9.2836064307627231e-01 7.6146885286161325e-01 3.1712291787235866e+01 6 2 0
1491 444 1 4.1499999999999998e-01 8.7154693306459552e-01 1.8044542767921192e+00 2.7254970298093177e+01 0 -2 0
4183 444 2 -8.2999999999999996e-01 3.2073028331802673e+00 1.2745426024592554e+00 2.5028430830755379e+01 0 2 0
2611 444 2 -8.2999999999999996e-01 2.2861473678526600e+00 2.9910937161389088e+00 3.1007517108741691e+01 -2 3 0
4019 444 1 4.1499999999999998e-01 4.2415053187531813e+00 4.5421599374859793e+00 2.6366498425262865e+01 2 3 0
1934 444 1 4.1499999999999998e-01 2.6081214389836731e-02 4.6220563377392434e+00 2.8432651274229436e+01 -4 2 0
4020 444 1 4.1499999999999998e-01 4.6329634504885266e+00 4.3961606060079443e+00 2.7821606808059705e+01 2 3 0
3865 444 2 -8.2999999999999996e-01 5.6195909683409626e+00 3.0213211386333200e-01 3.2003513444889720e+01 -1 1 0
3768 444 1 4.1499999999999998e-01 5.6034352578965887e+00 2.5909756217313022e+00 2.4806991652894816e+01 4 3 0
1005 444 1 4.1499999999999998e-01 5.7089062956766599e+00 1.5621321308617766e+00 3.0909707995757156e+01 -3 -4 0
2699 444 1 4.1499999999999998e-01 6.7195854341933939e-02 2.1100597727855969e-01 3.8311546429554014e+01 0 -3 0
6172 444 2 -8.2999999999999996e-01 5.5986230908979433e+00 6.6617907337105542e-02 3.7616614569828641e+01 2 -1 0
6100 444 2 -8.2999999999999996e-01 5.0418010802999236e+00 2.0985129315789872e+00 3.5893518556115161e+01 1 0 0
5621 444 1 4.1499999999999998e-01 1.3005807079824556e+00 4.0047292492426845e-01 3.5346233635296677e+01 -5 -1 0
3310 444 2 -8.2999999999999996e-01 3.0296179439534972e+00 2.2460143611975782e+00 3.4016040287733823e+01 2 -5 0
5622 444 1 4.1499999999999998e-01 1.4645719360724971e+00 1.8538105609344120e+00 3.4955322097469633e+01 -5 -1 0
3311 444 1 4.1499999999999998e-01 3.7081882629285623e+00 1.9871964867570440e+00 3.4639569619771045e+01 2 -5 0
6101 444 1 4.1499999999999998e-01 5.4430567090656297e+00 1.4557203001975338e+00 3.6478363910710954e+01 1 0 0
3312 444 1 4.1499999999999998e-01 3.4545851344646699e+00 2.8939925538207070e+00 3.3454115256149684e+01 2 -5 0
5620 444 2 -8.2999999999999996e-01 8.5127878189822803e-01 1.2454017541442011e+00 3.5367562451871805e+01 -5 -1 0
2289 444 1 4.1499999999999998e-01 5.6786608350964984e+00 5.3732119003863446e+00 3.3596190718057962e+01 3 0 0
208 444 6 2.9999999999999999e-02 7.5343794532198138e-01 4.7879331655481892e+00 3.4376463132915589e+01 0 0 0
2700 444 1 4.1499999999999998e-01 2.5221102846750654e-01 8.0288582974477518e-01 3.6930480459961899e+01 0 -3 0
371 444 1 4.1499999999999998e-01 4.0027725067691504e+00 3.4686142821620081e-02 3.6094355153361150e+01 5 -2 0
6305 444 7 0.0000000000000000e+00 1.6907200000000000e+00 5.8607399999999998e+00 0.0000000000000000e+00 0 0 0
6306 444 7 0.0000000000000000e+00 4.2285000000000004e+00 7.3259299999999996e+00 0.0000000000000000e+00 0 0 0
6307 444 7 -2.7779999999999999e-02 1.6907700000000001e+00 5.8607399999999998e+00 7.1781499999999996e+00 0 0 0
6308 444 7 -2.7779999999999999e-02 4.2285500000000003e+00 7.3259299999999996e+00 7.1781499999999996e+00 0 0 0
6309 444 7 0.0000000000000000e+00 2.5366499999999998e+00 7.3259299999999996e+00 2.3926400000000001e+00 0 0 0
6310 444 7 0.0000000000000000e+00 5.0744199999999999e+00 5.8607399999999998e+00 2.3926400000000001e+00 0 0 0
6311 444 7 0.0000000000000000e+00 8.4509000000000001e-01 7.3259299999999996e+00 4.7824200000000001e+00 0 0 0
6312 444 7 0.0000000000000000e+00 3.3828600000000000e+00 5.8607399999999998e+00 4.7824499999999999e+00 0 0 0
6313 444 7 0.0000000000000000e+00 1.6907200000000000e+00 8.7911099999999998e+00 0.0000000000000000e+00 0 0 0
6314 444 7 0.0000000000000000e+00 4.2285000000000004e+00 1.0256300000000000e+01 0.0000000000000000e+00 0 0 0
6315 444 7 -2.7779999999999999e-02 1.6907700000000001e+00 8.7911099999999998e+00 7.1781899999999998e+00 0 0 0
6316 444 7 -2.7779999999999999e-02 4.2285500000000003e+00 1.0256300000000000e+01 7.1781600000000001e+00 0 0 0
6317 444 7 0.0000000000000000e+00 2.5366499999999998e+00 1.0256300000000000e+01 2.3926400000000001e+00 0 0 0
6318 444 7 0.0000000000000000e+00 5.0744199999999999e+00 8.7911099999999998e+00 2.3926400000000001e+00 0 0 0
6319 444 7 0.0000000000000000e+00 8.4509000000000001e-01 1.0256300000000000e+01 4.7824499999999999e+00 0 0 0
6320 444 7 0.0000000000000000e+00 3.3828700000000000e+00 8.7911099999999998e+00 4.7824400000000002e+00 0 0 0
5562 444 1 4.1499999999999998e-01 2.4772177957637136e+00 9.7288400730297742e+00 9.4965059183819296e+00 -1 -4 0
2401 444 2 -8.2999999999999996e-01 3.2900127743200707e+00 1.1444819157249357e+01 1.2497891097264768e+01 0 1 0
2403 444 1 4.1499999999999998e-01 3.6585417268419751e+00 1.0886380412529245e+01 1.3182409418707156e+01 0 1 0
5560 444 2 -8.2999999999999996e-01 2.7143381392246946e+00 9.3873635874792249e+00 1.0358712177679818e+01 -1 -4 0
2350 444 2 -8.2999999999999996e-01 7.4657703983112789e-01 7.3840332476054202e+00 1.0618354471117778e+01 1 2 0
5561 444 1 4.1499999999999998e-01 3.2907912006869222e+00 8.6461098817278028e+00 1.0173033007084049e+01 -1 -4 0
1736 444 1 4.1499999999999998e-01 1.0370109395529787e+00 7.4356019002411733e+00 1.5264386392897768e+01 -1 -1 0
2133 444 1 4.1499999999999998e-01 5.7053067353392182e+00 9.3756345195334028e+00 1.1090284512034355e+01 -3 0 0
5800 444 2 -8.2999999999999996e-01 5.1916263101543905e+00 7.8223245852804544e+00 1.1294519470224321e+01 -1 -2 0
448 444 2 -8.2999999999999996e-01 8.2467822494117016e-01 7.1329654377754270e+00 1.3307127378925060e+01 -1 -1 0
2402 444 1 4.1499999999999998e-01 3.1921360386805420e+00 1.0865395096214677e+01 1.1742298040522403e+01 0 1 0
4583 444 1 4.1499999999999998e-01 3.2731620975835325e+00 8.1475583770259075e+00 1.3920745689442711e+01 0 -4 0
4584 444 1 4.1499999999999998e-01 3.7888815249271972e+00 8.4438194269931834e+00 1.2528568164859825e+01 0 -4 0
1516 444 2 -8.2999999999999996e-01 1.4876839465518188e-01 1.0494301883866644e+01 1.5825809727264716e+01 -3 3 0
1735 444 2 -8.2999999999999996e-01 1.1350003163190272e+00 7.9092510183785558e+00 1.6090392980081738e+01 -1 -1 0
4582 444 2 -8.2999999999999996e-01 3.5572206038265213e+00 8.8661152410970310e+00 1.3355751218017511e+01 0 -4 0
449 444 1 4.1499999999999998e-01 7.6463153399235650e-01 6.1802171550446863e+00 1.3377106109646387e+01 -1 -1 0
450 444 1 4.1499999999999998e-01 7.9271842217999389e-01 7.3069940935325448e+00 1.2366423118048473e+01 -1 -1 0
5802 444 1 4.1499999999999998e-01 5.4217819653723076e+00 7.0237934639179622e+00 1.0819536946512997e+01 -1 -2 0
2912 444 1 4.1499999999999998e-01 4.9058484488650222e+00 8.7147179456756501e+00 1.4460200297373435e+01 5 2 0
2352 444 1 4.1499999999999998e-01 1.0539548003906509e+00 8.2614759467475594e+00 1.0390658809537014e+01 1 2 0
2911 444 2 -8.2999999999999996e-01 5.5303644547981570e+00 8.4475488311591533e+00 1.5134612900476869e+01 5 2 0
2132 444 1 4.1499999999999998e-01 5.5540841869303712e+00 1.0854988041025301e+01 1.0806488368607370e+01 -3 0 0
1518 444 1 4.1499999999999998e-01 4.6157155049806303e-01 9.5934643960143102e+00 1.5742875659304886e+01 -3 3 0
1517 444 1 4.1499999999999998e-01 4.7174055686685729e-01 1.0933866857952866e+01 1.5039232602780006e+01 -3 3 0
1244 444 1 4.1499999999999998e-01 5.6389035583497558e+00 6.7218593245740133e+00 1.5289851139950244e+01 -2 3 0
1799 444 1 4.1499999999999998e-01 1.8536393461003438e+00 5.8635015253990854e+00 1.0113933362835493e+01 3 1 0
1737 444 1 4.1499999999999998e-01 1.1309552797908147e+00 7.2260076441945618e+00 1.6760762327912055e+01 -1 -1 0
1358 444 1 4.1499999999999998e-01 1.8750452144357190e+00 6.8862397295803834e+00 1.8855433089123895e+01 2 -1 0
2881 444 2 -8.2999999999999996e-01 3.2160072558466499e+00 9.6463827234840576e+00 1.7857551363491122e+01 -1 0 0
1434 444 1 4.1499999999999998e-01 2.2938262772213620e+00 9.7798864370357350e+00 2.1463225793590681e+01 1 -2 0
1611 444 1 4.1499999999999998e-01 4.0029659548327228e+00 1.1165251339744295e+01 1.7952913379589493e+01 -1 3 0
2432 444 1 4.1499999999999998e-01 4.1876995593225370e+00 1.0820035169588657e+01 2.2679708290995883e+01 2 -1 0
2883 444 1 4.1499999999999998e-01 2.6598986994092351e+00 9.8284242316978929e+00 1.7100031630295206e+01 -1 0 0
5690 444 1 4.1499999999999998e-01 1.7474975660961061e+00 8.4347257448960882e+00 2.0335519949113326e+01 2 2 0
1357 444 2 -8.2999999999999996e-01 1.6780090415566649e+00 6.3001998384555460e+00 1.8124703389571735e+01 2 -1 0
2882 444 1 4.1499999999999998e-01 2.8482518601230655e+00 8.8493197389980942e+00 1.8239229898815339e+01 -1 0 0
5689 444 2 -8.2999999999999996e-01 2.4425450900602192e+00 7.7937923169067815e+00 2.0186033054588815e+01 2 2 0
5691 444 1 4.1499999999999998e-01 3.2194821994251601e+00 8.1846822621331405e+00 2.0585790576013068e+01 2 2 0
1921 444 2 -8.2999999999999996e-01 5.6952919117059562e+00 6.1166371553006753e+00 2.0821178087185586e+01 -2 2 0
1433 444 1 4.1499999999999998e-01 3.0209850463022212e+00 1.0896809235661010e+01 2.0745159594118924e+01 1 -2 0
2555 444 1 4.1499999999999998e-01 4.6250971831478269e+00 7.3811565366114493e+00 1.7979263958508295e+01 -2 -3 0
687 444 1 4.1499999999999998e-01 1.7092141526903692e-01 9.8603482981491659e+00 2.0354180316661033e+01 1 -2 0
685 444 2 -8.2999999999999996e-01 5.2571625011218925e-01 9.3321896227175678e+00 2.1069303407148215e+01 1 -2 0
2554 444 2 -8.2999999999999996e-01 5.4704524967841976e+00 7.4991144446248121e+00 1.8412498781129202e+01 -2 -3 0
2431 444 2 -8.2999999999999996e-01 4.8017806746442968e+00 1.1291024142285849e+01 2.3243007218233391e+01 2 -1 0
1432 444 2 -8.2999999999999996e-01 3.1067589180481265e+00 1.0285060952028733e+01 2.1476350117922909e+01 1 -2 0
926 444 1 4.1499999999999998e-01 3.9503749625940525e+00 1.1689952413469724e+01 3.0590548714250573e+01 -2 -2 0
195 444 5 1.4000000000000001e-01 8.5138857901413578e-01 6.8907780118383091e+00 3.1064180418712063e+01 0 0 0
4218 444 1 4.1499999999999998e-01 5.3467793362966098e+00 9.2132741382840688e+00 2.5461560577280764e+01 3 1 0
3795 444 1 4.1499999999999998e-01 4.3998646001655990e+00 8.4773794784010175e+00 2.7630951158334497e+01 -2 2 0
4047 444 1 4.1499999999999998e-01 1.5203083712758154e+00 8.6761046954160648e+00 2.4554354646366040e+01 -1 -3 0
5997 444 1 4.1499999999999998e-01 1.7035562085378908e+00 1.1041308762860705e+01 2.9793734159929290e+01 2 0 0
3506 444 1 4.1499999999999998e-01 3.3394195145379686e+00 1.0594288341687715e+01 2.6058093714831990e+01 -2 2 0
5995 444 2 -8.2999999999999996e-01 9.9916243943640282e-01 1.1612297392449706e+01 3.0100382994102773e+01 2 0 0
744 444 1 4.1499999999999998e-01 2.4224676112853394e+00 6.2864057206165915e+00 2.5734344018203053e+01 1 2 0
743 444 1 4.1499999999999998e-01 3.2362527722241583e+00 6.6585409900720993e+00 2.4513211620445844e+01 1 2 0
3507 444 1 4.1499999999999998e-01 1.8351993481636975e+00 1.0693389724900479e+01 2.5918821525423855e+01 -2 2 0
214 444 6 2.9999999999999999e-02 1.1519533851776873e+00 7.9162609473360357e+00 3.1172985412505433e+01 0 0 0
215 444 6 2.9999999999999999e-02 1.1843966902967356e+00 6.4609285326482295e+00 3.0172481430970283e+01 0 0 0
3793 444 2 -8.2999999999999996e-01 4.1893151960930117e+00 7.7916667406020004e+00 2.8264748400124983e+01 -2 2 0
5004 444 1 4.1499999999999998e-01 3.0966927409151257e+00 9.4615594212441820e+00 2.8659873028716532e+01 -1 -2 0
742 444 2 -8.2999999999999996e-01 2.7397120741425049e+00 7.0402645962632242e+00 2.5237066817147959e+01 1 2 0
194 444 5 1.4000000000000001e-01 1.1232703390893140e+00 6.1140796374762720e+00 3.2382712455469317e+01 0 0 0
4216 444 2 -8.2999999999999996e-01 4.5858029568665479e+00 9.2113425625555632e+00 2.6042201089299887e+01 3 1 0
5002 444 2 -8.2999999999999996e-01 3.0632982121707579e+00 1.0315218695353840e+01 2.9091593809707103e+01 -1 -2 0
3181 444 2 -8.2999999999999996e-01 4.0806591938837933e+00 6.6715159719633164e+00 3.0991540375889048e+01 -2 0 0
3183 444 1 4.1499999999999998e-01 4.0599523211235917e+00 7.1610569206666526e+00 3.0169255080342513e+01 -2 0 0
3182 444 1 4.1499999999999998e-01 4.1481665575048607e+00 7.3438738467741835e+00 3.1669485800961965e+01 -2 0 0
3794 444 1 4.1499999999999998e-01 4.0861599562985882e+00 7.0001052538380542e+00 2.7736523621529184e+01 -2 2 0
4217 444 1 4.1499999999999998e-01 3.9537944740716489e+00 8.6386829411166524e+00 2.5607621785504310e+01 3 1 0
5003 444 1 4.1499999999999998e-01 3.5412735613021336e+00 1.0900270089784879e+01 2.8503812868414144e+01 -1 -2 0
3505 444 2 -8.2999999999999996e-01 2.5996883359867216e+00 1.1175929687953440e+01 2.6233376368611172e+01 -2 2 0
4045 444 2 -8.2999999999999996e-01 8.7841412478082803e-01 9.1410995280016643e+00 2.5090995736405350e+01 -1 -3 0
4046 444 1 4.1499999999999998e-01 2.8703173348436956e-01 9.5488644066702335e+00 2.4458360906561580e+01 -1 -3 0
213 444 6 2.9999999999999999e-02 1.7478176873109306e+00 6.8389502705376248e+00 3.3012701809875097e+01 0 0 0
391 444 2 -8.2999999999999996e-01 1.3412208745421059e+00 9.4741584209119356e+00 3.3691223556207703e+01 6 -4 0
3454 444 2 -8.2999999999999996e-01 4.3973045803000499e+00 8.7539527076330952e+00 3.5744239233233948e+01 4 -2 0
205 444 6 2.9999999999999999e-02 8.3599027927246017e-01 7.1264434471940419e+00 3.5179972667064547e+01 0 0 0
6223 444 2 -8.2999999999999996e-01 3.3669930438292686e+00 1.1189885549995621e+01 3.5859470024631037e+01 0 -1 0
599 444 1 4.1499999999999998e-01 5.6092501174044065e+00 7.2056409716653080e+00 3.3174385413601534e+01 0 4 0
393 444 1 4.1499999999999998e-01 1.2539462796517691e+00 1.0425945284771780e+01 3.3639094846512208e+01 6 -4 0
6225 444 1 4.1499999999999998e-01 3.7138715802415039e+00 1.0309527613085951e+01 3.6003959048506282e+01 0 -1 0
598 444 2 -8.2999999999999996e-01 5.1521179830887736e+00 8.0383968259778804e+00 3.3056992570162720e+01 0 4 0
3456 444 1 4.1499999999999998e-01 5.2710785708376813e+00 8.4908361567911328e+00 3.6033239749932449e+01 4 -2 0
392 444 1 4.1499999999999998e-01 2.1228755404970214e+00 9.3337471478096088e+00 3.4225576408459510e+01 6 -4 0
3455 444 1 4.1499999999999998e-01 4.3725533725544103e+00 8.5244693926790926e+00 3.4815283799647887e+01 4 -2 0
6321 444 7 0.0000000000000000e+00 1.6907200000000000e+00 1.1721480000000000e+01 0.0000000000000000e+00 0 0 0
6322 444 7 0.0000000000000000e+00 4.2285000000000004e+00 1.3186669999999999e+01 0.0000000000000000e+00 0 0 0
6323 444 7 -2.7779999999999999e-02 1.6907700000000001e+00 1.1721480000000000e+01 7.1781499999999996e+00 0 0 0
6324 444 7 -2.7779999999999999e-02 4.2285500000000003e+00 1.3186669999999999e+01 7.1781499999999996e+00 0 0 0
6325 444 7 0.0000000000000000e+00 2.5366499999999998e+00 1.3186669999999999e+01 2.3926400000000001e+00 0 0 0
6326 444 7 0.0000000000000000e+00 5.0744199999999999e+00 1.1721480000000000e+01 2.3926400000000001e+00 0 0 0
6327 444 7 0.0000000000000000e+00 8.4509000000000001e-01 1.3186669999999999e+01 4.7824200000000001e+00 0 0 0
6328 444 7 0.0000000000000000e+00 3.3828600000000000e+00 1.1721480000000000e+01 4.7824499999999999e+00 0 0 0
6329 444 7 0.0000000000000000e+00 1.6907200000000000e+00 1.4651850000000000e+01 0.0000000000000000e+00 0 0 0
6331 444 7 -2.7779999999999999e-02 1.6907700000000001e+00 1.4651850000000000e+01 7.1781899999999998e+00 0 0 0
6334 444 7 0.0000000000000000e+00 5.0744199999999999e+00 1.4651850000000000e+01 2.3926400000000001e+00 0 0 0
6336 444 7 0.0000000000000000e+00 3.3828700000000000e+00 1.4651850000000000e+01 4.7824400000000002e+00 0 0 0
6330 444 7 0.0000000000000000e+00 4.2285000000000004e+00 1.6117039999999999e+01 0.0000000000000000e+00 0 0 0
6332 444 7 -2.7779999999999999e-02 4.2285500000000003e+00 1.6117039999999999e+01 7.1781600000000001e+00 0 0 0
6333 444 7 0.0000000000000000e+00 2.5366499999999998e+00 1.6117039999999999e+01 2.3926400000000001e+00 0 0 0
6335 444 7 0.0000000000000000e+00 8.4509000000000001e-01 1.6117039999999999e+01 4.7824499999999999e+00 0 0 0
5590 444 2 -8.2999999999999996e-01 2.3806099759402954e+00 1.2668681258379436e+01 1.0040728691088198e+01 -2 -1 0
3000 444 1 4.1499999999999998e-01 4.4435273536255471e+00 1.4166097993782552e+01 1.5174911390109189e+01 4 -4 0
3883 444 2 -8.2999999999999996e-01 4.8771195885702330e+00 1.2187457709292026e+01 1.0068050949165539e+01 0 -1 0
3884 444 1 4.1499999999999998e-01 5.1886379107554284e+00 1.3026136789742557e+01 9.7277486896772203e+00 0 -1 0
5592 444 1 4.1499999999999998e-01 1.7151054550908780e+00 1.2061981086814065e+01 1.0365152024779519e+01 -2 -1 0
5031 444 1 4.1499999999999998e-01 7.1102054415934413e-01 1.5716522454278426e+01 1.3896722064644189e+01 3 -2 0
2575 444 2 -8.2999999999999996e-01 2.7859797497078929e+00 1.5095730145291501e+01 1.0897124675530971e+01 -1 4 0
5591 444 1 4.1499999999999998e-01 1.9237739690431510e+00 1.3199517960563872e+01 9.3882372144297257e+00 -2 -1 0
3885 444 1 4.1499999999999998e-01 3.9328380009689297e+00 1.2305932471133779e+01 1.0170656727009121e+01 0 -1 0
2576 444 1 4.1499999999999998e-01 2.7160760960441497e+00 1.4165434276411807e+01 1.0682893530536996e+01 -1 4 0
5151 444 1 4.1499999999999998e-01 4.6076204716315088e+00 1.4443028368085882e+01 1.2742084416567085e+01 -2 2 0
2577 444 1 4.1499999999999998e-01 3.5856848857301977e+00 1.5383906458082159e+01 1.0457058791244011e+01 -1 4 0
5029 444 2 -8.2999999999999996e-01 1.2478286115493069e+00 1.6272136130664720e+01 1.4461843918222490e+01 3 -2 0
454 444 2 -8.2999999999999996e-01 1.0326573421417460e+00 1.1990434241913835e+01 1.3832219493534311e+01 0 5 0
5149 444 2 -8.2999999999999996e-01 4.4261208802512053e+00 1.3820529897349880e+01 1.3446204998592403e+01 -2 2 0
456 444 1 4.1499999999999998e-01 6.3642180027920559e-01 1.2824852170643267e+01 1.3581269217923808e+01 0 5 0
2998 444 2 -8.2999999999999996e-01 4.3535718592162231e+00 1.4612462472793945e+01 1.6016872586818927e+01 4 -4 0
2999 444 1 4.1499999999999998e-01 3.6134759009107396e+00 1.5207204494464374e+01 1.5895332958699719e+01 4 -4 0
5030 444 1 4.1499999999999998e-01 1.9708388186913031e+00 1.6555998871237836e+01 1.3902459537163654e+01 3 -2 0
455 444 1 4.1499999999999998e-01 1.5999476426188248e+00 1.1762969075538455e+01 1.3095555870822315e+01 0 5 0
5580 444 1 4.1499999999999998e-01 9.5817210095266114e-01 1.5051700808645959e+01 1.0870539087369659e+01 2 -2 0
880 444 2 -8.2999999999999996e-01 5.3896101109473626e+00 1.5183903366251203e+01 1.0312836113452978e+01 1 -2 0
5150 444 1 4.1499999999999998e-01 3.7439362026608975e+00 1.3249977216834484e+01 1.3092189950475055e+01 -2 2 0
5115 444 1 4.1499999999999998e-01 6.1459776845633785e-01 1.7281591722522283e+01 1.5690898088380113e+01 5 -1 0
3817 444 2 -8.2999999999999996e-01 2.9076873096895555e+00 1.7247928069171500e+01 1.2531795317517778e+01 0 -2 0
882 444 1 4.1499999999999998e-01 5.5258761857265215e+00 1.5953650643345947e+01 9.7604298951719510e+00 1 -2 0
5578 444 2 -8.2999999999999996e-01 1.0009909441259557e-01 1.4691533991027312e+01 1.0646434526588330e+01 2 -2 0
3819 444 1 4.1499999999999998e-01 2.7272334331133576e+00 1.6550557811879063e+01 1.1901442897249213e+01 0 -2 0
4388 444 1 4.1499999999999998e-01 1.7562169490878052e+00 1.7146768057517036e+01 1.0299715775207581e+01 -2 -4 0
2433 444 1 4.1499999999999998e-01 4.7858320716133251e+00 1.2190528651209473e+01 2.2916098655510908e+01 2 -1 0
1610 444 1 4.1499999999999998e-01 4.2732699011014930e+00 1.2561880346071192e+01 1.7434975661208682e+01 -1 3 0