LAMMPS data file via write_data, version 11 Aug 2017, timestep = 0

2727 atoms
9 atom types
1560 bonds
5 bond types
1275 angles
3 angle types
945 dihedrals
2 dihedral types

0.0000000000000000e+00 3.0453600000000002e+01 xlo xhi
0.0000000000000000e+00 3.5164200000000001e+01 ylo yhi
0.0000000000000000e+00 5.0000000000000000e+01 zlo zhi

Masses

1 1.0079
2 15.9994
3 22.9898
4 15.9994
5 12.011
6 1.0079
7 107.868
8 15.9994
9 12.011

Angle Coeffs # harmonic

1 50 109.471
2 50 104.51
3 55 104.52

Dihedral Coeffs # charmm

1 0.111111 3 0 0
2 0.166667 3 0 0

Atoms # full

325 444 7 0.0000000000000000e+00 0.0000000000000000e+00 0.0000000000000000e+00 0.0000000000000000e+00 0 0 0
326 444 7 0.0000000000000000e+00 2.5377999999999998e+00 1.4651700000000001e+00 0.0000000000000000e+00 0 0 0
327 444 7 -6.2500000000000000e-02 5.0597700000000003e+00 5.8402200000000004e+00 7.1591800000000001e+00 0 0 0
328 444 7 -6.2500000000000000e-02 2.5367199999999999e+00 1.4594700000000000e+00 7.2366200000000003e+00 0 0 0
329 444 7 0.0000000000000000e+00 1.6918700000000000e+00 0.0000000000000000e+00 2.3925000000000001e+00 0 0 0
330 444 7 0.0000000000000000e+00 4.2296699999999996e+00 1.4651700000000001e+00 2.3925000000000001e+00 0 0 0
331 444 7 0.0000000000000000e+00 3.3837299999999999e+00 0.0000000000000000e+00 4.7852499999999996e+00 0 0 0
332 444 7 0.0000000000000000e+00 8.4592999999999996e-01 1.4651700000000001e+00 4.7852499999999996e+00 0 0 0
333 444 7 0.0000000000000000e+00 0.0000000000000000e+00 2.9303499999999998e+00 0.0000000000000000e+00 0 0 0
334 444 7 0.0000000000000000e+00 2.5377999999999998e+00 4.3955200000000003e+00 0.0000000000000000e+00 0 0 0
335 444 7 -6.2500000000000000e-02 4.7999999999999996e-03 2.9345300000000001e+00 7.1618100000000000e+00 0 0 0
336 444 7 -6.2500000000000000e-02 2.5282800000000001e+00 4.3833000000000002e+00 7.1607099999999999e+00 0 0 0
337 444 7 0.0000000000000000e+00 1.6918700000000000e+00 2.9303499999999998e+00 2.3925000000000001e+00 0 0 0
338 444 7 0.0000000000000000e+00 4.2296699999999996e+00 4.3955200000000003e+00 2.3925000000000001e+00 0 0 0
339 444 7 0.0000000000000000e+00 3.3837299999999999e+00 2.9303499999999998e+00 4.7852499999999996e+00 0 0 0
340 444 7 0.0000000000000000e+00 8.4592999999999996e-01 4.3955200000000003e+00 4.7852499999999996e+00 0 0 0
344 444 7 0.0000000000000000e+00 5.0755999999999997e+00 0.0000000000000000e+00 0.0000000000000000e+00 0 0 0
347 444 7 -6.2500000000000000e-02 7.6123200000000004e+00 1.4594700000000000e+00 7.2366200000000003e+00 0 0 0
348 444 7 0.0000000000000000e+00 6.7674700000000003e+00 0.0000000000000000e+00 2.3925000000000001e+00 0 0 0
351 444 7 0.0000000000000000e+00 5.9215299999999997e+00 1.4651700000000001e+00 4.7852499999999996e+00 0 0 0
352 444 7 0.0000000000000000e+00 5.0755999999999997e+00 2.9303499999999998e+00 0.0000000000000000e+00 0 0 0
354 444 7 -6.2500000000000000e-02 5.0804000000000000e+00 2.9345300000000001e+00 7.1618100000000000e+00 0 0 0
355 444 7 -6.2500000000000000e-02 7.6038800000000002e+00 4.3833000000000002e+00 7.1607099999999999e+00 0 0 0
356 444 7 0.0000000000000000e+00 6.7674700000000003e+00 2.9303499999999998e+00 2.3925000000000001e+00 0 0 0
359 444 7 0.0000000000000000e+00 5.9215299999999997e+00 4.3955200000000003e+00 4.7852499999999996e+00 0 0 0
360 444 7 0.0000000000000000e+00 0.0000000000000000e+00 5.8606999999999996e+00 0.0000000000000000e+00 0 0 0
361 444 7 0.0000000000000000e+00 2.5377999999999998e+00 7.3258700000000001e+00 0.0000000000000000e+00 0 0 0
363 444 7 -6.2500000000000000e-02 2.5367199999999999e+00 7.3201700000000001e+00 7.2366200000000003e+00 0 0 0
364 444 7 0.0000000000000000e+00 1.6918700000000000e+00 5.8606999999999996e+00 2.3925000000000001e+00 0 0 0
365 444 7 0.0000000000000000e+00 4.2296699999999996e+00 7.3258700000000001e+00 2.3925000000000001e+00 0 0 0
366 444 7 0.0000000000000000e+00 3.3837299999999999e+00 5.8606999999999996e+00 4.7852499999999996e+00 0 0 0
367 444 7 0.0000000000000000e+00 8.4592999999999996e-01 7.3258700000000001e+00 4.7852499999999996e+00 0 0 0
376 444 7 0.0000000000000000e+00 5.0755999999999997e+00 5.8606999999999996e+00 0.0000000000000000e+00 0 0 0
379 444 7 -6.2500000000000000e-02 7.6123200000000004e+00 7.3201700000000001e+00 7.2366200000000003e+00 0 0 0
380 444 7 0.0000000000000000e+00 6.7674700000000003e+00 5.8606999999999996e+00 2.3925000000000001e+00 0 0 0
383 444 7 0.0000000000000000e+00 5.9215299999999997e+00 7.3258700000000001e+00 4.7852499999999996e+00 0 0 0
345 444 7 0.0000000000000000e+00 7.6134000000000004e+00 1.4651700000000001e+00 0.0000000000000000e+00 0 0 0
346 444 7 -6.2500000000000000e-02 1.0135370000000000e+01 5.8402200000000004e+00 7.1591800000000001e+00 0 0 0
349 444 7 0.0000000000000000e+00 9.3052700000000002e+00 1.4651700000000001e+00 2.3925000000000001e+00 0 0 0
350 444 7 0.0000000000000000e+00 8.4593299999999996e+00 0.0000000000000000e+00 4.7852499999999996e+00 0 0 0
353 444 7 0.0000000000000000e+00 7.6134000000000004e+00 4.3955200000000003e+00 0.0000000000000000e+00 0 0 0
357 444 7 0.0000000000000000e+00 9.3052700000000002e+00 4.3955200000000003e+00 2.3925000000000001e+00 0 0 0
358 444 7 0.0000000000000000e+00 8.4593299999999996e+00 2.9303499999999998e+00 4.7852499999999996e+00 0 0 0
526 444 7 0.0000000000000000e+00 1.0151199999999999e+01 0.0000000000000000e+00 0.0000000000000000e+00 0 0 0
527 444 7 0.0000000000000000e+00 1.2689000000000000e+01 1.4651700000000001e+00 0.0000000000000000e+00 0 0 0
528 444 7 -6.2500000000000000e-02 1.5210970000000000e+01 5.8402200000000004e+00 7.1591800000000001e+00 0 0 0
529 444 7 -6.2500000000000000e-02 1.2687920000000000e+01 1.4594700000000000e+00 7.2366200000000003e+00 0 0 0
530 444 7 0.0000000000000000e+00 1.1843070000000001e+01 0.0000000000000000e+00 2.3925000000000001e+00 0 0 0
531 444 7 0.0000000000000000e+00 1.4380870000000000e+01 1.4651700000000001e+00 2.3925000000000001e+00 0 0 0
532 444 7 0.0000000000000000e+00 1.3534929999999999e+01 0.0000000000000000e+00 4.7852499999999996e+00 0 0 0
533 444 7 0.0000000000000000e+00 1.0997130000000000e+01 1.4651700000000001e+00 4.7852499999999996e+00 0 0 0
534 444 7 0.0000000000000000e+00 1.0151199999999999e+01 2.9303499999999998e+00 0.0000000000000000e+00 0 0 0
535 444 7 0.0000000000000000e+00 1.2689000000000000e+01 4.3955200000000003e+00 0.0000000000000000e+00 0 0 0
536 444 7 -6.2500000000000000e-02 1.0156000000000001e+01 2.9345300000000001e+00 7.1618100000000000e+00 0 0 0
537 444 7 -6.2500000000000000e-02 1.2679480000000000e+01 4.3833000000000002e+00 7.1607099999999999e+00 0 0 0
538 444 7 0.0000000000000000e+00 1.1843070000000001e+01 2.9303499999999998e+00 2.3925000000000001e+00 0 0 0
539 444 7 0.0000000000000000e+00 1.4380870000000000e+01 4.3955200000000003e+00 2.3925000000000001e+00 0 0 0
540 444 7 0.0000000000000000e+00 1.3534929999999999e+01 2.9303499999999998e+00 4.7852499999999996e+00 0 0 0
541 444 7 0.0000000000000000e+00 1.0997130000000000e+01 4.3955200000000003e+00 4.7852499999999996e+00 0 0 0
377 444 7 0.0000000000000000e+00 7.6134000000000004e+00 7.3258700000000001e+00 0.0000000000000000e+00 0 0 0
381 444 7 0.0000000000000000e+00 9.3052700000000002e+00 7.3258700000000001e+00 2.3925000000000001e+00 0 0 0
382 444 7 0.0000000000000000e+00 8.4593299999999996e+00 5.8606999999999996e+00 4.7852499999999996e+00 0 0 0
561 444 7 0.0000000000000000e+00 1.0151199999999999e+01 5.8606999999999996e+00 0.0000000000000000e+00 0 0 0
562 444 7 0.0000000000000000e+00 1.2689000000000000e+01 7.3258700000000001e+00 0.0000000000000000e+00 0 0 0
564 444 7 -6.2500000000000000e-02 1.2687920000000000e+01 7.3201700000000001e+00 7.2366200000000003e+00 0 0 0
565 444 7 0.0000000000000000e+00 1.1843070000000001e+01 5.8606999999999996e+00 2.3925000000000001e+00 0 0 0
566 444 7 0.0000000000000000e+00 1.4380870000000000e+01 7.3258700000000001e+00 2.3925000000000001e+00 0 0 0
567 444 7 0.0000000000000000e+00 1.3534929999999999e+01 5.8606999999999996e+00 4.7852499999999996e+00 0 0 0
568 444 7 0.0000000000000000e+00 1.0997130000000000e+01 7.3258700000000001e+00 4.7852499999999996e+00 0 0 0
545 444 7 0.0000000000000000e+00 1.5226800000000001e+01 0.0000000000000000e+00 0.0000000000000000e+00 0 0 0
546 444 7 0.0000000000000000e+00 1.7764600000000002e+01 1.4651700000000001e+00 0.0000000000000000e+00 0 0 0
547 444 7 -6.2500000000000000e-02 2.0286570000000001e+01 5.8402200000000004e+00 7.1591800000000001e+00 0 0 0
548 444 7 -6.2500000000000000e-02 1.7763520000000000e+01 1.4594700000000000e+00 7.2366200000000003e+00 0 0 0
549 444 7 0.0000000000000000e+00 1.6918669999999999e+01 0.0000000000000000e+00 2.3925000000000001e+00 0 0 0
550 444 7 0.0000000000000000e+00 1.9456469999999999e+01 1.4651700000000001e+00 2.3925000000000001e+00 0 0 0
551 444 7 0.0000000000000000e+00 1.8610530000000001e+01 0.0000000000000000e+00 4.7852499999999996e+00 0 0 0
552 444 7 0.0000000000000000e+00 1.6072730000000000e+01 1.4651700000000001e+00 4.7852499999999996e+00 0 0 0
553 444 7 0.0000000000000000e+00 1.5226800000000001e+01 2.9303499999999998e+00 0.0000000000000000e+00 0 0 0
554 444 7 0.0000000000000000e+00 1.7764600000000002e+01 4.3955200000000003e+00 0.0000000000000000e+00 0 0 0
555 444 7 -6.2500000000000000e-02 1.5231600000000000e+01 2.9345300000000001e+00 7.1618100000000000e+00 0 0 0
556 444 7 -6.2500000000000000e-02 1.7755080000000000e+01 4.3833000000000002e+00 7.1607099999999999e+00 0 0 0
557 444 7 0.0000000000000000e+00 1.6918669999999999e+01 2.9303499999999998e+00 2.3925000000000001e+00 0 0 0
558 444 7 0.0000000000000000e+00 1.9456469999999999e+01 4.3955200000000003e+00 2.3925000000000001e+00 0 0 0
559 444 7 0.0000000000000000e+00 1.8610530000000001e+01 2.9303499999999998e+00 4.7852499999999996e+00 0 0 0
560 444 7 0.0000000000000000e+00 1.6072730000000000e+01 4.3955200000000003e+00 4.7852499999999996e+00 0 0 0
727 444 7 0.0000000000000000e+00 2.0302399999999999e+01 0.0000000000000000e+00 0.0000000000000000e+00 0 0 0
730 444 7 -6.2500000000000000e-02 2.2839120000000001e+01 1.4594700000000000e+00 7.2366200000000003e+00 0 0 0
731 444 7 0.0000000000000000e+00 2.1994270000000000e+01 0.0000000000000000e+00 2.3925000000000001e+00 0 0 0
734 444 7 0.0000000000000000e+00 2.1148330000000001e+01 1.4651700000000001e+00 4.7852499999999996e+00 0 0 0
735 444 7 0.0000000000000000e+00 2.0302399999999999e+01 2.9303499999999998e+00 0.0000000000000000e+00 0 0 0
737 444 7 -6.2500000000000000e-02 2.0307200000000002e+01 2.9345300000000001e+00 7.1618100000000000e+00 0 0 0
738 444 7 -6.2500000000000000e-02 2.2830680000000001e+01 4.3833000000000002e+00 7.1607099999999999e+00 0 0 0
739 444 7 0.0000000000000000e+00 2.1994270000000000e+01 2.9303499999999998e+00 2.3925000000000001e+00 0 0 0
742 444 7 0.0000000000000000e+00 2.1148330000000001e+01 4.3955200000000003e+00 4.7852499999999996e+00 0 0 0
577 444 7 0.0000000000000000e+00 1.5226800000000001e+01 5.8606999999999996e+00 0.0000000000000000e+00 0 0 0
578 444 7 0.0000000000000000e+00 1.7764600000000002e+01 7.3258700000000001e+00 0.0000000000000000e+00 0 0 0
580 444 7 -6.2500000000000000e-02 1.7763520000000000e+01 7.3201700000000001e+00 7.2366200000000003e+00 0 0 0
581 444 7 0.0000000000000000e+00 1.6918669999999999e+01 5.8606999999999996e+00 2.3925000000000001e+00 0 0 0
582 444 7 0.0000000000000000e+00 1.9456469999999999e+01 7.3258700000000001e+00 2.3925000000000001e+00 0 0 0
583 444 7 0.0000000000000000e+00 1.8610530000000001e+01 5.8606999999999996e+00 4.7852499999999996e+00 0 0 0
584 444 7 0.0000000000000000e+00 1.6072730000000000e+01 7.3258700000000001e+00 4.7852499999999996e+00 0 0 0
762 444 7 0.0000000000000000e+00 2.0302399999999999e+01 5.8606999999999996e+00 0.0000000000000000e+00 0 0 0
765 444 7 -6.2500000000000000e-02 2.2839120000000001e+01 7.3201700000000001e+00 7.2366200000000003e+00 0 0 0
766 444 7 0.0000000000000000e+00 2.1994270000000000e+01 5.8606999999999996e+00 2.3925000000000001e+00 0 0 0
769 444 7 0.0000000000000000e+00 2.1148330000000001e+01 7.3258700000000001e+00 4.7852499999999996e+00 0 0 0
728 444 7 0.0000000000000000e+00 2.2840199999999999e+01 1.4651700000000001e+00 0.0000000000000000e+00 0 0 0
736 444 7 0.0000000000000000e+00 2.2840199999999999e+01 4.3955200000000003e+00 0.0000000000000000e+00 0 0 0
763 444 7 0.0000000000000000e+00 2.2840199999999999e+01 7.3258700000000001e+00 0.0000000000000000e+00 0 0 0
729 444 7 -6.2500000000000000e-02 2.5362169999999999e+01 5.8402200000000004e+00 7.1591800000000001e+00 0 0 0
732 444 7 0.0000000000000000e+00 2.4532070000000001e+01 1.4651700000000001e+00 2.3925000000000001e+00 0 0 0
733 444 7 0.0000000000000000e+00 2.3686129999999999e+01 0.0000000000000000e+00 4.7852499999999996e+00 0 0 0
740 444 7 0.0000000000000000e+00 2.4532070000000001e+01 4.3955200000000003e+00 2.3925000000000001e+00 0 0 0
741 444 7 0.0000000000000000e+00 2.3686129999999999e+01 2.9303499999999998e+00 4.7852499999999996e+00 0 0 0
746 444 7 0.0000000000000000e+00 2.5378000000000000e+01 0.0000000000000000e+00 0.0000000000000000e+00 0 0 0
747 444 7 0.0000000000000000e+00 2.7915800000000001e+01 1.4651700000000001e+00 0.0000000000000000e+00 0 0 0
748 444 7 -6.2500000000000000e-02 3.0437770000000000e+01 5.8402200000000004e+00 7.1591800000000001e+00 0 0 0
749 444 7 -6.2500000000000000e-02 2.7914719999999999e+01 1.4594700000000000e+00 7.2366200000000003e+00 0 0 0
750 444 7 0.0000000000000000e+00 2.7069870000000002e+01 0.0000000000000000e+00 2.3925000000000001e+00 0 0 0
751 444 7 0.0000000000000000e+00 2.9607669999999999e+01 1.4651700000000001e+00 2.3925000000000001e+00 0 0 0
752 444 7 0.0000000000000000e+00 2.8761730000000000e+01 0.0000000000000000e+00 4.7852499999999996e+00 0 0 0
753 444 7 0.0000000000000000e+00 2.6223929999999999e+01 1.4651700000000001e+00 4.7852499999999996e+00 0 0 0
754 444 7 0.0000000000000000e+00 2.5378000000000000e+01 2.9303499999999998e+00 0.0000000000000000e+00 0 0 0
755 444 7 0.0000000000000000e+00 2.7915800000000001e+01 4.3955200000000003e+00 0.0000000000000000e+00 0 0 0
756 444 7 -6.2500000000000000e-02 2.5382800000000000e+01 2.9345300000000001e+00 7.1618100000000000e+00 0 0 0
757 444 7 -6.2500000000000000e-02 2.7906279999999999e+01 4.3833000000000002e+00 7.1607099999999999e+00 0 0 0
758 444 7 0.0000000000000000e+00 2.7069870000000002e+01 2.9303499999999998e+00 2.3925000000000001e+00 0 0 0
759 444 7 0.0000000000000000e+00 2.9607669999999999e+01 4.3955200000000003e+00 2.3925000000000001e+00 0 0 0
760 444 7 0.0000000000000000e+00 2.8761730000000000e+01 2.9303499999999998e+00 4.7852499999999996e+00 0 0 0
761 444 7 0.0000000000000000e+00 2.6223929999999999e+01 4.3955200000000003e+00 4.7852499999999996e+00 0 0 0
767 444 7 0.0000000000000000e+00 2.4532070000000001e+01 7.3258700000000001e+00 2.3925000000000001e+00 0 0 0
768 444 7 0.0000000000000000e+00 2.3686129999999999e+01 5.8606999999999996e+00 4.7852499999999996e+00 0 0 0
778 444 7 0.0000000000000000e+00 2.5378000000000000e+01 5.8606999999999996e+00 0.0000000000000000e+00 0 0 0
779 444 7 0.0000000000000000e+00 2.7915800000000001e+01 7.3258700000000001e+00 0.0000000000000000e+00 0 0 0
781 444 7 -6.2500000000000000e-02 2.7914719999999999e+01 7.3201700000000001e+00 7.2366200000000003e+00 0 0 0
782 444 7 0.0000000000000000e+00 2.7069870000000002e+01 5.8606999999999996e+00 2.3925000000000001e+00 0 0 0
783 444 7 0.0000000000000000e+00 2.9607669999999999e+01 7.3258700000000001e+00 2.3925000000000001e+00 0 0 0
784 444 7 0.0000000000000000e+00 2.8761730000000000e+01 5.8606999999999996e+00 4.7852499999999996e+00 0 0 0
785 444 7 0.0000000000000000e+00 2.6223929999999999e+01 7.3258700000000001e+00 4.7852499999999996e+00 0 0 0
362 444 7 -6.2500000000000000e-02 5.0597700000000003e+00 1.1700920000000000e+01 7.1591800000000001e+00 0 0 0
368 444 7 0.0000000000000000e+00 0.0000000000000000e+00 8.7910500000000003e+00 0.0000000000000000e+00 0 0 0
369 444 7 0.0000000000000000e+00 2.5377999999999998e+00 1.0256220000000001e+01 0.0000000000000000e+00 0 0 0
370 444 7 -6.2500000000000000e-02 4.7999999999999996e-03 8.7952300000000001e+00 7.1618100000000000e+00 0 0 0
371 444 7 -6.2500000000000000e-02 2.5282800000000001e+00 1.0244000000000000e+01 7.1607099999999999e+00 0 0 0
372 444 7 0.0000000000000000e+00 1.6918700000000000e+00 8.7910500000000003e+00 2.3925000000000001e+00 0 0 0
373 444 7 0.0000000000000000e+00 4.2296699999999996e+00 1.0256220000000001e+01 2.3925000000000001e+00 0 0 0
374 444 7 0.0000000000000000e+00 3.3837299999999999e+00 8.7910500000000003e+00 4.7852499999999996e+00 0 0 0
375 444 7 0.0000000000000000e+00 8.4592999999999996e-01 1.0256220000000001e+01 4.7852499999999996e+00 0 0 0
384 444 7 0.0000000000000000e+00 5.0755999999999997e+00 8.7910500000000003e+00 0.0000000000000000e+00 0 0 0
386 444 7 -6.2500000000000000e-02 5.0804000000000000e+00 8.7952300000000001e+00 7.1618100000000000e+00 0 0 0
387 444 7 -6.2500000000000000e-02 7.6038800000000002e+00 1.0244000000000000e+01 7.1607099999999999e+00 0 0 0
388 444 7 0.0000000000000000e+00 6.7674700000000003e+00 8.7910500000000003e+00 2.3925000000000001e+00 0 0 0
391 444 7 0.0000000000000000e+00 5.9215299999999997e+00 1.0256220000000001e+01 4.7852499999999996e+00 0 0 0
392 444 7 0.0000000000000000e+00 0.0000000000000000e+00 1.1721399999999999e+01 0.0000000000000000e+00 0 0 0
393 444 7 0.0000000000000000e+00 2.5377999999999998e+00 1.3186570000000000e+01 0.0000000000000000e+00 0 0 0
394 444 7 -6.2500000000000000e-02 5.0597700000000003e+00 1.7561620000000001e+01 7.1591800000000001e+00 0 0 0
395 444 7 -6.2500000000000000e-02 2.5367199999999999e+00 1.3180870000000001e+01 7.2366200000000003e+00 0 0 0
396 444 7 0.0000000000000000e+00 1.6918700000000000e+00 1.1721399999999999e+01 2.3925000000000001e+00 0 0 0
397 444 7 0.0000000000000000e+00 4.2296699999999996e+00 1.3186570000000000e+01 2.3925000000000001e+00 0 0 0
398 444 7 0.0000000000000000e+00 3.3837299999999999e+00 1.1721399999999999e+01 4.7852499999999996e+00 0 0 0
399 444 7 0.0000000000000000e+00 8.4592999999999996e-01 1.3186570000000000e+01 4.7852499999999996e+00 0 0 0
400 444 7 0.0000000000000000e+00 0.0000000000000000e+00 1.4651750000000000e+01 0.0000000000000000e+00 0 0 0
401 444 7 0.0000000000000000e+00 2.5377999999999998e+00 1.6116920000000000e+01 0.0000000000000000e+00 0 0 0
402 444 7 -6.2500000000000000e-02 4.7999999999999996e-03 1.4655930000000000e+01 7.1618100000000000e+00 0 0 0
403 444 7 -6.2500000000000000e-02 2.5282800000000001e+00 1.6104700000000001e+01 7.1607099999999999e+00 0 0 0
404 444 7 0.0000000000000000e+00 1.6918700000000000e+00 1.4651750000000000e+01 2.3925000000000001e+00 0 0 0
405 444 7 0.0000000000000000e+00 4.2296699999999996e+00 1.6116920000000000e+01 2.3925000000000001e+00 0 0 0
406 444 7 0.0000000000000000e+00 3.3837299999999999e+00 1.4651750000000000e+01 4.7852499999999996e+00 0 0 0
407 444 7 0.0000000000000000e+00 8.4592999999999996e-01 1.6116920000000000e+01 4.7852499999999996e+00 0 0 0
411 444 7 0.0000000000000000e+00 5.0755999999999997e+00 1.1721399999999999e+01 0.0000000000000000e+00 0 0 0
414 444 7 -6.2500000000000000e-02 7.6123200000000004e+00 1.3180870000000001e+01 7.2366200000000003e+00 0 0 0
415 444 7 0.0000000000000000e+00 6.7674700000000003e+00 1.1721399999999999e+01 2.3925000000000001e+00 0 0 0
418 444 7 0.0000000000000000e+00 5.9215299999999997e+00 1.3186570000000000e+01 4.7852499999999996e+00 0 0 0
419 444 7 0.0000000000000000e+00 5.0755999999999997e+00 1.4651750000000000e+01 0.0000000000000000e+00 0 0 0
421 444 7 -6.2500000000000000e-02 5.0804000000000000e+00 1.4655930000000000e+01 7.1618100000000000e+00 0 0 0
422 444 7 -6.2500000000000000e-02 7.6038800000000002e+00 1.6104700000000001e+01 7.1607099999999999e+00 0 0 0
423 444 7 0.0000000000000000e+00 6.7674700000000003e+00 1.4651750000000000e+01 2.3925000000000001e+00 0 0 0
426 444 7 0.0000000000000000e+00 5.9215299999999997e+00 1.6116920000000000e+01 4.7852499999999996e+00 0 0 0
378 444 7 -6.2500000000000000e-02 1.0135370000000000e+01 1.1700920000000000e+01 7.1591800000000001e+00 0 0 0
385 444 7 0.0000000000000000e+00 7.6134000000000004e+00 1.0256220000000001e+01 0.0000000000000000e+00 0 0 0
389 444 7 0.0000000000000000e+00 9.3052700000000002e+00 1.0256220000000001e+01 2.3925000000000001e+00 0 0 0
390 444 7 0.0000000000000000e+00 8.4593299999999996e+00 8.7910500000000003e+00 4.7852499999999996e+00 0 0 0
563 444 7 -6.2500000000000000e-02 1.5210970000000000e+01 1.1700920000000000e+01 7.1591800000000001e+00 0 0 0
569 444 7 0.0000000000000000e+00 1.0151199999999999e+01 8.7910500000000003e+00 0.0000000000000000e+00 0 0 0
570 444 7 0.0000000000000000e+00 1.2689000000000000e+01 1.0256220000000001e+01 0.0000000000000000e+00 0 0 0
571 444 7 -6.2500000000000000e-02 1.0156000000000001e+01 8.7952300000000001e+00 7.1618100000000000e+00 0 0 0
572 444 7 -6.2500000000000000e-02 1.2679480000000000e+01 1.0244000000000000e+01 7.1607099999999999e+00 0 0 0
573 444 7 0.0000000000000000e+00 1.1843070000000001e+01 8.7910500000000003e+00 2.3925000000000001e+00 0 0 0
574 444 7 0.0000000000000000e+00 1.4380870000000000e+01 1.0256220000000001e+01 2.3925000000000001e+00 0 0 0
575 444 7 0.0000000000000000e+00 1.3534929999999999e+01 8.7910500000000003e+00 4.7852499999999996e+00 0 0 0
576 444 7 0.0000000000000000e+00 1.0997130000000000e+01 1.0256220000000001e+01 4.7852499999999996e+00 0 0 0
412 444 7 0.0000000000000000e+00 7.6134000000000004e+00 1.3186570000000000e+01 0.0000000000000000e+00 0 0 0
413 444 7 -6.2500000000000000e-02 1.0135370000000000e+01 1.7561620000000001e+01 7.1591800000000001e+00 0 0 0
416 444 7 0.0000000000000000e+00 9.3052700000000002e+00 1.3186570000000000e+01 2.3925000000000001e+00 0 0 0
417 444 7 0.0000000000000000e+00 8.4593299999999996e+00 1.1721399999999999e+01 4.7852499999999996e+00 0 0 0
420 444 7 0.0000000000000000e+00 7.6134000000000004e+00 1.6116920000000000e+01 0.0000000000000000e+00 0 0 0
424 444 7 0.0000000000000000e+00 9.3052700000000002e+00 1.6116920000000000e+01 2.3925000000000001e+00 0 0 0
425 444 7 0.0000000000000000e+00 8.4593299999999996e+00 1.4651750000000000e+01 4.7852499999999996e+00 0 0 0
593 444 7 0.0000000000000000e+00 1.0151199999999999e+01 1.1721399999999999e+01 0.0000000000000000e+00 0 0 0
594 444 7 0.0000000000000000e+00 1.2689000000000000e+01 1.3186570000000000e+01 0.0000000000000000e+00 0 0 0
595 444 7 -6.2500000000000000e-02 1.5210970000000000e+01 1.7561620000000001e+01 7.1591800000000001e+00 0 0 0
596 444 7 -6.2500000000000000e-02 1.2687920000000000e+01 1.3180870000000001e+01 7.2366200000000003e+00 0 0 0
597 444 7 0.0000000000000000e+00 1.1843070000000001e+01 1.1721399999999999e+01 2.3925000000000001e+00 0 0 0
598 444 7 0.0000000000000000e+00 1.4380870000000000e+01 1.3186570000000000e+01 2.3925000000000001e+00 0 0 0
599 444 7 0.0000000000000000e+00 1.3534929999999999e+01 1.1721399999999999e+01 4.7852499999999996e+00 0 0 0
600 444 7 0.0000000000000000e+00 1.0997130000000000e+01 1.3186570000000000e+01 4.7852499999999996e+00 0 0 0
601 444 7 0.0000000000000000e+00 1.0151199999999999e+01 1.4651750000000000e+01 0.0000000000000000e+00 0 0 0
602 444 7 0.0000000000000000e+00 1.2689000000000000e+01 1.6116920000000000e+01 0.0000000000000000e+00 0 0 0
603 444 7 -6.2500000000000000e-02 1.0156000000000001e+01 1.4655930000000000e+01 7.1618100000000000e+00 0 0 0
604 444 7 -6.2500000000000000e-02 1.2679480000000000e+01 1.6104700000000001e+01 7.1607099999999999e+00 0 0 0
605 444 7 0.0000000000000000e+00 1.1843070000000001e+01 1.4651750000000000e+01 2.3925000000000001e+00 0 0 0
606 444 7 0.0000000000000000e+00 1.4380870000000000e+01 1.6116920000000000e+01 2.3925000000000001e+00 0 0 0
607 444 7 0.0000000000000000e+00 1.3534929999999999e+01 1.4651750000000000e+01 4.7852499999999996e+00 0 0 0
608 444 7 0.0000000000000000e+00 1.0997130000000000e+01 1.6116920000000000e+01 4.7852499999999996e+00 0 0 0
579 444 7 -6.2500000000000000e-02 2.0286570000000001e+01 1.1700920000000000e+01 7.1591800000000001e+00 0 0 0
585 444 7 0.0000000000000000e+00 1.5226800000000001e+01 8.7910500000000003e+00 0.0000000000000000e+00 0 0 0
586 444 7 0.0000000000000000e+00 1.7764600000000002e+01 1.0256220000000001e+01 0.0000000000000000e+00 0 0 0
587 444 7 -6.2500000000000000e-02 1.5231600000000000e+01 8.7952300000000001e+00 7.1618100000000000e+00 0 0 0
588 444 7 -6.2500000000000000e-02 1.7755080000000000e+01 1.0244000000000000e+01 7.1607099999999999e+00 0 0 0
589 444 7 0.0000000000000000e+00 1.6918669999999999e+01 8.7910500000000003e+00 2.3925000000000001e+00 0 0 0
590 444 7 0.0000000000000000e+00 1.9456469999999999e+01 1.0256220000000001e+01 2.3925000000000001e+00 0 0 0
591 444 7 0.0000000000000000e+00 1.8610530000000001e+01 8.7910500000000003e+00 4.7852499999999996e+00 0 0 0
592 444 7 0.0000000000000000e+00 1.6072730000000000e+01 1.0256220000000001e+01 4.7852499999999996e+00 0 0 0
770 444 7 0.0000000000000000e+00 2.0302399999999999e+01 8.7910500000000003e+00 0.0000000000000000e+00 0 0 0
772 444 7 -6.2500000000000000e-02 2.0307200000000002e+01 8.7952300000000001e+00 7.1618100000000000e+00 0 0 0
773 444 7 -6.2500000000000000e-02 2.2830680000000001e+01 1.0244000000000000e+01 7.1607099999999999e+00 0 0 0
774 444 7 0.0000000000000000e+00 2.1994270000000000e+01 8.7910500000000003e+00 2.3925000000000001e+00 0 0 0
777 444 7 0.0000000000000000e+00 2.1148330000000001e+01 1.0256220000000001e+01 4.7852499999999996e+00 0 0 0
612 444 7 0.0000000000000000e+00 1.5226800000000001e+01 1.1721399999999999e+01 0.0000000000000000e+00 0 0 0
613 444 7 0.0000000000000000e+00 1.7764600000000002e+01 1.3186570000000000e+01 0.0000000000000000e+00 0 0 0
614 444 7 -6.2500000000000000e-02 2.0286570000000001e+01 1.7561620000000001e+01 7.1591800000000001e+00 0 0 0
615 444 7 -6.2500000000000000e-02 1.7763520000000000e+01 1.3180870000000001e+01 7.2366200000000003e+00 0 0 0
616 444 7 0.0000000000000000e+00 1.6918669999999999e+01 1.1721399999999999e+01 2.3925000000000001e+00 0 0 0
617 444 7 0.0000000000000000e+00 1.9456469999999999e+01 1.3186570000000000e+01 2.3925000000000001e+00 0 0 0
618 444 7 0.0000000000000000e+00 1.8610530000000001e+01 1.1721399999999999e+01 4.7852499999999996e+00 0 0 0
619 444 7 0.0000000000000000e+00 1.6072730000000000e+01 1.3186570000000000e+01 4.7852499999999996e+00 0 0 0
620 444 7 0.0000000000000000e+00 1.5226800000000001e+01 1.4651750000000000e+01 0.0000000000000000e+00 0 0 0
621 444 7 0.0000000000000000e+00 1.7764600000000002e+01 1.6116920000000000e+01 0.0000000000000000e+00 0 0 0
622 444 7 -6.2500000000000000e-02 1.5231600000000000e+01 1.4655930000000000e+01 7.1618100000000000e+00 0 0 0
623 444 7 -6.2500000000000000e-02 1.7755080000000000e+01 1.6104700000000001e+01 7.1607099999999999e+00 0 0 0
624 444 7 0.0000000000000000e+00 1.6918669999999999e+01 1.4651750000000000e+01 2.3925000000000001e+00 0 0 0
625 444 7 0.0000000000000000e+00 1.9456469999999999e+01 1.6116920000000000e+01 2.3925000000000001e+00 0 0 0
626 444 7 0.0000000000000000e+00 1.8610530000000001e+01 1.4651750000000000e+01 4.7852499999999996e+00 0 0 0
627 444 7 0.0000000000000000e+00 1.6072730000000000e+01 1.6116920000000000e+01 4.7852499999999996e+00 0 0 0
794 444 7 0.0000000000000000e+00 2.0302399999999999e+01 1.1721399999999999e+01 0.0000000000000000e+00 0 0 0
797 444 7 -6.2500000000000000e-02 2.2839120000000001e+01 1.3180870000000001e+01 7.2366200000000003e+00 0 0 0
798 444 7 0.0000000000000000e+00 2.1994270000000000e+01 1.1721399999999999e+01 2.3925000000000001e+00 0 0 0
801 444 7 0.0000000000000000e+00 2.1148330000000001e+01 1.3186570000000000e+01 4.7852499999999996e+00 0 0 0
802 444 7 0.0000000000000000e+00 2.0302399999999999e+01 1.4651750000000000e+01 0.0000000000000000e+00 0 0 0
804 444 7 -6.2500000000000000e-02 2.0307200000000002e+01 1.4655930000000000e+01 7.1618100000000000e+00 0 0 0
805 444 7 -6.2500000000000000e-02 2.2830680000000001e+01 1.6104700000000001e+01 7.1607099999999999e+00 0 0 0
806 444 7 0.0000000000000000e+00 2.1994270000000000e+01 1.4651750000000000e+01 2.3925000000000001e+00 0 0 0
809 444 7 0.0000000000000000e+00 2.1148330000000001e+01 1.6116920000000000e+01 4.7852499999999996e+00 0 0 0
771 444 7 0.0000000000000000e+00 2.2840199999999999e+01 1.0256220000000001e+01 0.0000000000000000e+00 0 0 0
795 444 7 0.0000000000000000e+00 2.2840199999999999e+01 1.3186570000000000e+01 0.0000000000000000e+00 0 0 0
803 444 7 0.0000000000000000e+00 2.2840199999999999e+01 1.6116920000000000e+01 0.0000000000000000e+00 0 0 0
764 444 7 -6.2500000000000000e-02 2.5362169999999999e+01 1.1700920000000000e+01 7.1591800000000001e+00 0 0 0
775 444 7 0.0000000000000000e+00 2.4532070000000001e+01 1.0256220000000001e+01 2.3925000000000001e+00 0 0 0
776 444 7 0.0000000000000000e+00 2.3686129999999999e+01 8.7910500000000003e+00 4.7852499999999996e+00 0 0 0
780 444 7 -6.2500000000000000e-02 3.0437770000000000e+01 1.1700920000000000e+01 7.1591800000000001e+00 0 0 0
786 444 7 0.0000000000000000e+00 2.5378000000000000e+01 8.7910500000000003e+00 0.0000000000000000e+00 0 0 0
787 444 7 0.0000000000000000e+00 2.7915800000000001e+01 1.0256220000000001e+01 0.0000000000000000e+00 0 0 0
788 444 7 -6.2500000000000000e-02 2.5382800000000000e+01 8.7952300000000001e+00 7.1618100000000000e+00 0 0 0
789 444 7 -6.2500000000000000e-02 2.7906279999999999e+01 1.0244000000000000e+01 7.1607099999999999e+00 0 0 0
790 444 7 0.0000000000000000e+00 2.7069870000000002e+01 8.7910500000000003e+00 2.3925000000000001e+00 0 0 0
791 444 7 0.0000000000000000e+00 2.9607669999999999e+01 1.0256220000000001e+01 2.3925000000000001e+00 0 0 0
792 444 7 0.0000000000000000e+00 2.8761730000000000e+01 8.7910500000000003e+00 4.7852499999999996e+00 0 0 0
793 444 7 0.0000000000000000e+00 2.6223929999999999e+01 1.0256220000000001e+01 4.7852499999999996e+00 0 0 0
796 444 7 -6.2500000000000000e-02 2.5362169999999999e+01 1.7561620000000001e+01 7.1591800000000001e+00 0 0 0
799 444 7 0.0000000000000000e+00 2.4532070000000001e+01 1.3186570000000000e+01 2.3925000000000001e+00 0 0 0
800 444 7 0.0000000000000000e+00 2.3686129999999999e+01 1.1721399999999999e+01 4.7852499999999996e+00 0 0 0
807 444 7 0.0000000000000000e+00 2.4532070000000001e+01 1.6116920000000000e+01 2.3925000000000001e+00 0 0 0