LAMMPS data file via write_data, version 11 Aug 2017, timestep = 500000

7944 atoms
7 atom types
4880 bonds
5 bond types
3430 angles
3 angle types
1650 dihedrals
2 dihedral types

0.0000000000000000e+00 4.5679949999999998e+01 xlo xhi
0.0000000000000000e+00 4.6885919999999999e+01 ylo yhi
0.0000000000000000e+00 6.5000000000000000e+01 zlo zhi

Masses

1 1.0079
2 15.9994
3 22.9898
4 15.9994
5 12.011
6 1.0079
7 107.868

Angle Coeffs # harmonic

1 50 109.471
2 50 104.51
3 55 104.52

Dihedral Coeffs # charmm

1 0.111111 3 0 0
2 0.333333 3 0 0

Atoms # full

6793 444 7 0.0000000000000000e+00 1.6907200000000000e+00 0.0000000000000000e+00 0.0000000000000000e+00 0 0 0
6794 444 7 0.0000000000000000e+00 4.2285000000000004e+00 1.4651900000000000e+00 0.0000000000000000e+00 0 0 0
6795 444 7 -7.6390000000000000e-02 1.6907700000000001e+00 0.0000000000000000e+00 7.1781499999999996e+00 0 0 0
6796 444 7 -7.6390000000000000e-02 4.2285500000000003e+00 1.4651900000000000e+00 7.1781499999999996e+00 0 0 0
6797 444 7 0.0000000000000000e+00 2.5366499999999998e+00 1.4651900000000000e+00 2.3926400000000001e+00 0 0 0
6798 444 7 0.0000000000000000e+00 5.0744199999999999e+00 0.0000000000000000e+00 2.3926400000000001e+00 0 0 0
6799 444 7 0.0000000000000000e+00 8.4509000000000001e-01 1.4651900000000000e+00 4.7824200000000001e+00 0 0 0
6800 444 7 0.0000000000000000e+00 3.3828600000000000e+00 0.0000000000000000e+00 4.7824499999999999e+00 0 0 0
6801 444 7 0.0000000000000000e+00 1.6907200000000000e+00 2.9303699999999999e+00 0.0000000000000000e+00 0 0 0
6802 444 7 0.0000000000000000e+00 4.2285000000000004e+00 4.3955599999999997e+00 0.0000000000000000e+00 0 0 0
6803 444 7 -7.6390000000000000e-02 1.6907700000000001e+00 2.9303699999999999e+00 7.1781899999999998e+00 0 0 0
6804 444 7 -7.6390000000000000e-02 4.2285500000000003e+00 4.3955599999999997e+00 7.1781600000000001e+00 0 0 0
6805 444 7 0.0000000000000000e+00 2.5366499999999998e+00 4.3955599999999997e+00 2.3926400000000001e+00 0 0 0
6806 444 7 0.0000000000000000e+00 5.0744199999999999e+00 2.9303699999999999e+00 2.3926400000000001e+00 0 0 0
6807 444 7 0.0000000000000000e+00 8.4509000000000001e-01 4.3955599999999997e+00 4.7824499999999999e+00 0 0 0
6808 444 7 0.0000000000000000e+00 3.3828700000000000e+00 2.9303699999999999e+00 4.7824400000000002e+00 0 0 0
4704 444 1 4.1499999999999998e-01 1.7811106530484475e+00 2.6770296350078069e+00 1.1908042274604961e+01 -4 0 0
4702 444 2 -8.2999999999999996e-01 2.5319974235768643e+00 2.9300847210940373e+00 1.2445037874473465e+01 -4 0 0
540 444 3 1.0000000000000000e+00 2.2078519799253762e+00 2.4206020543559426e+00 1.4887757248118533e+01 -1 1 0
4703 444 1 4.1499999999999998e-01 3.1743174100646283e+00 3.2624907527540703e+00 1.1818009695899406e+01 -4 0 0
4380 444 1 4.1499999999999998e-01 1.6228583908452843e+00 1.2401618198294049e+00 9.9127996726115146e+00 3 3 0
4378 444 2 -8.2999999999999996e-01 7.9378287524535718e-01 1.1001107126570049e+00 1.0370239797158197e+01 3 3 0
4609 444 2 -8.2999999999999996e-01 1.9805358720394937e+00 4.6203081162374318e+00 1.0096679467103662e+01 -5 -3 0
510 444 5 1.4000000000000001e-01 3.7438431942973129e+00 1.2087324721748642e-01 1.5183614157417379e+01 -1 1 0
535 444 6 2.9999999999999999e-02 1.8769319591547491e+00 5.1046699759934127e+00 1.6128083142856610e+01 -1 1 0
4610 444 1 4.1499999999999998e-01 1.0569937100718021e+00 4.3688845023037990e+00 1.0106138074280054e+01 -5 -3 0
1846 444 2 -8.2999999999999996e-01 4.0540436458589344e+00 4.0137368982951402e+00 1.4541522629624369e+01 6 -6 0
1847 444 1 4.1499999999999998e-01 4.5791682942255409e+00 3.9809501065945905e+00 1.3741896573967706e+01 6 -6 0
506 444 4 -4.0000000000000002e-01 1.5693813050473628e+00 1.5275758836777886e-01 1.4330498722134806e+01 -1 1 0
1848 444 1 4.1499999999999998e-01 3.7169912568604024e+00 4.9091555583089255e+00 1.4570739856311981e+01 6 -6 0
2038 444 2 -8.2999999999999996e-01 4.3662878309127509e+00 3.0893054142044187e+00 1.0454291643442451e+01 -3 3 0
521 444 6 2.9999999999999999e-02 4.0285393296848540e+00 8.6135365516487561e-01 1.4452083052416222e+01 -1 1 0
2039 444 1 4.1499999999999998e-01 4.4685373928166250e+00 2.1460083436464132e+00 1.0327924141848982e+01 -3 3 0
4017 444 1 4.1499999999999998e-01 5.6074975320427090e+00 3.3915417467370039e+00 1.1567515906527436e+01 1 -3 0
4915 444 2 -8.2999999999999996e-01 4.7639280567531452e+00 3.7127315175594638e-01 1.0313393506541436e+01 3 0 0
538 444 6 2.9999999999999999e-02 5.5343898252184232e-01 4.4004297755900348e+00 1.3957887876925334e+01 -1 1 0
509 444 4 -4.0000000000000002e-01 4.3567701289593058e-01 3.6503877393764768e+00 1.5900351146877110e+01 -1 1 0
4379 444 1 4.1499999999999998e-01 3.5791388810914465e-01 1.9518856070417556e+00 1.0343218089606154e+01 3 3 0
4611 444 1 4.1499999999999998e-01 2.3687242573989704e+00 4.0821004612345204e+00 9.4068429669581484e+00 -5 -3 0
2040 444 1 4.1499999999999998e-01 4.2288480383928890e+00 3.4360268369351270e+00 9.5727438677312939e+00 -3 3 0
4917 444 1 4.1499999999999998e-01 5.1239286330173917e+00 3.6210928382405427e-01 9.4265182742493305e+00 3 0 0
517 444 5 1.4000000000000001e-01 1.0786443186683503e+00 4.6467134864041286e+00 1.6678343525687588e+01 -1 1 0
505 444 4 -4.0000000000000002e-01 3.1436308163299489e+00 7.1420201385872661e-01 1.6344493004162690e+01 -1 1 0
5839 444 2 -8.2999999999999996e-01 5.1321970453431165e+00 5.3033251955669876e+00 2.1803964145065006e+01 1 -5 0
3456 444 1 4.1499999999999998e-01 5.1650979749081891e+00 9.5954493875002178e-01 2.0171674916393243e+01 1 -3 0
3454 444 2 -8.2999999999999996e-01 4.4930335572166431e+00 5.4652909717917530e-01 2.0713873389624602e+01 1 -3 0
523 444 6 2.9999999999999999e-02 4.5806374466361213e+00 4.0904802512932442e-01 1.7732792166741238e+01 -1 1 0
522 444 6 2.9999999999999999e-02 4.7737091213927041e+00 1.9377214624195420e+00 1.6569355417963987e+01 -1 1 0
511 444 5 1.4000000000000001e-01 4.1273121762713645e+00 1.2362117758181592e+00 1.7128491176814549e+01 -1 1 0
526 444 6 2.9999999999999999e-02 2.7158969897433760e+00 1.4849231412340698e+00 1.8760670439160791e+01 -1 1 0
2033 444 1 4.1499999999999998e-01 2.9056300005989182e+00 3.0030426306388316e+00 2.2994024479730744e+01 1 0 0
515 444 5 1.4000000000000001e-01 1.7240385365620439e+00 3.8637412736361427e+00 1.7796147784282979e+01 -1 1 0
507 444 4 -4.0000000000000002e-01 2.5356123541785869e+00 2.8268235347770343e+00 1.7233207436695352e+01 -1 1 0
513 444 5 1.4000000000000001e-01 3.3554352372037264e+00 2.0883301941556778e+00 1.8146938704512500e+01 -1 1 0
531 444 6 2.9999999999999999e-02 9.9552427847203839e-01 3.4225416480532100e+00 1.8521405645174646e+01 -1 1 0
2032 444 2 -8.2999999999999996e-01 2.0619469673294115e+00 3.2838919204255461e+00 2.3348361234895950e+01 1 0 0
2034 444 1 4.1499999999999998e-01 1.9260452673314854e+00 4.1572245692338123e+00 2.2980866046283740e+01 1 0 0
527 444 6 2.9999999999999999e-02 4.0231389286895585e+00 2.7995305272759392e+00 1.8608112661347906e+01 -1 1 0
6547 444 2 -8.2999999999999996e-01 4.5476189156134641e+00 2.6542619382188253e+00 2.2595097563258463e+01 1 3 0
2841 444 1 4.1499999999999998e-01 1.0342056626996987e+00 2.0515943415819344e+00 2.1826031200637150e+01 -2 2 0
3720 444 1 4.1499999999999998e-01 7.6629808856496051e-01 5.6807699577338848e+00 2.4239924880971216e+01 -5 1 0
5884 444 2 -8.2999999999999996e-01 1.4537214798161828e+00 5.6236164957955266e+00 2.1801949778861797e+01 -4 4 0
530 444 6 2.9999999999999999e-02 2.3170116280939057e+00 4.5629528021285966e+00 1.8447737150497431e+01 -1 1 0
6548 444 1 4.1499999999999998e-01 4.4078386397496798e+00 2.0064463294719026e+00 2.1904425224474267e+01 1 3 0
2840 444 1 4.1499999999999998e-01 8.2993881026699667e-01 2.6261612797939864e+00 2.0440374908646419e+01 -2 2 0
534 444 6 2.9999999999999999e-02 3.6626794459650391e-01 5.4336764933879396e+00 1.7006605792393071e+01 -1 1 0
5886 444 1 4.1499999999999998e-01 5.2145327264848917e-01 5.4069449318448637e+00 2.1814653635737216e+01 -4 4 0
2839 444 2 -8.2999999999999996e-01 3.7479226074965311e-01 2.1581987926135122e+00 2.1140435411840613e+01 -2 2 0
6549 444 1 4.1499999999999998e-01 5.2982535640358828e+00 2.3220024010632248e+00 2.3087421787545118e+01 1 3 0
5840 444 1 4.1499999999999998e-01 4.7870443170742689e+00 4.4648713882334707e+00 2.2110717915823031e+01 1 -5 0
4293 444 1 4.1499999999999998e-01 5.5735835905958799e+00 5.7775109288944932e+00 1.8641451450974689e+01 4 2 0
1556 444 1 4.1499999999999998e-01 1.1465130513049575e+00 8.3325683776319925e-01 2.8942170483592225e+01 -1 -2 0
3823 444 2 -8.2999999999999996e-01 1.4452707877117534e+00 2.7679505273587840e-01 3.0539895821509560e+01 3 6 0
5667 444 1 4.1499999999999998e-01 3.0521941550495737e+00 3.3909824001077311e+00 2.7429815754788208e+01 0 -2 0
1555 444 2 -8.2999999999999996e-01 5.0464377503262381e-01 1.1927911343767861e+00 2.8329821787688399e+01 -1 -2 0
3824 444 1 4.1499999999999998e-01 2.3692215578360885e+00 4.2109683325924879e-01 3.0744160063405747e+01 3 6 0
6722 444 1 4.1499999999999998e-01 2.3144350514268570e+00 5.5717547391235334e+00 2.6976725878472912e+01 1 -4 0
6721 444 2 -8.2999999999999996e-01 2.8558973686624007e+00 4.8615843414387214e+00 2.6632184409162139e+01 1 -4 0
5666 444 1 4.1499999999999998e-01 2.2911656592430858e+00 2.1928021655472403e+00 2.7956213870756820e+01 0 -2 0
2332 444 2 -8.2999999999999996e-01 2.5239516102869972e+00 4.1902197969200996e+00 3.1790297090161904e+01 0 -2 0
2333 444 1 4.1499999999999998e-01 1.6113212930458207e+00 4.2049756378159797e+00 3.1501991524647401e+01 0 -2 0
5018 444 1 4.1499999999999998e-01 2.2628416783660357e+00 1.2391708200935114e+00 2.5500542365923007e+01 -1 3 0
5017 444 2 -8.2999999999999996e-01 1.3474718264331924e+00 1.3467671111770478e+00 2.5242175847266619e+01 -1 3 0
1076 444 1 4.1499999999999998e-01 5.6906159437023209e+00 1.1677046513013756e+00 2.5114741122840215e+01 -1 -4 0
4409 444 1 4.1499999999999998e-01 4.0866462675013731e+00 5.6944528371205783e+00 3.0348254399699364e+01 -3 -4 0
1488 444 1 4.1499999999999998e-01 3.8562922267392823e+00 1.9955539330171490e+00 2.9809219684081278e+01 -3 -1 0
1486 444 2 -8.2999999999999996e-01 3.6064545246883819e+00 2.1812813219459648e+00 3.0714382002557070e+01 -3 -1 0
2334 444 1 4.1499999999999998e-01 2.8964743814641927e+00 3.4160613538354698e+00 3.1368233712434041e+01 0 -2 0
1487 444 1 4.1499999999999998e-01 4.4376331015902295e+00 2.3120774623601097e+00 3.1170744899538519e+01 -3 -1 0
5665 444 2 -8.2999999999999996e-01 3.1443501568138137e+00 2.4555941295589157e+00 2.7610890185032233e+01 0 -2 0
4410 444 1 4.1499999999999998e-01 3.7021079532389178e+00 5.1124339189794128e+00 2.9004647483638216e+01 -3 -4 0
6723 444 1 4.1499999999999998e-01 3.2025237280134200e+00 5.2024393257220094e+00 2.5807623548147642e+01 1 -4 0
5019 444 1 4.1499999999999998e-01 1.3491894106341351e+00 2.1103627043298969e+00 2.4664982873575578e+01 -1 3 0
4266 444 1 4.1499999999999998e-01 4.7942068283666508e+00 1.0046203307518259e-01 2.6971325072193487e+01 2 0 0
4265 444 1 4.1499999999999998e-01 4.4579482379361286e+00 1.4923526582931512e+00 2.7462717007261830e+01 2 0 0
4883 444 1 4.1499999999999998e-01 3.6757182599069016e+00 5.5888142140647927e+00 3.2443885460226340e+01 1 2 0
4264 444 2 -8.2999999999999996e-01 5.1875340086366890e+00 9.5297030876879074e-01 2.7157752700731397e+01 2 0 0
3825 444 1 4.1499999999999998e-01 1.0251740008643853e+00 1.6716954063615413e-01 3.1392968450820330e+01 3 6 0
6005 444 1 4.1499999999999998e-01 4.5115606171008682e-01 5.6498935781591442e+00 2.7767632690376388e+01 2 0 0
1222 444 2 -8.2999999999999996e-01 2.0956460319301002e+00 3.6996566042242645e+00 3.6491456701071812e+01 -2 0 0
5833 444 2 -8.2999999999999996e-01 4.8136234068713240e+00 1.9095565299824755e+00 3.7263436305337166e+01 -2 3 0
5834 444 1 4.1499999999999998e-01 5.4783301342169191e+00 2.1498075927177118e+00 3.6617931361791932e+01 -2 3 0
1223 444 1 4.1499999999999998e-01 1.5037898421805540e+00 4.2814699352334769e+00 3.6014559072689323e+01 -2 0 0
2547 444 1 4.1499999999999998e-01 4.5649706654093185e+00 3.5016663781472572e+00 3.4058277176982656e+01 -4 5 0
5028 444 1 4.1499999999999998e-01 7.6414852678488121e-01 4.1821167000709885e+00 3.8260198614679034e+01 0 0 0
5835 444 1 4.1499999999999998e-01 4.5995014120423638e+00 9.9907626154201601e-01 3.7059941400031619e+01 -2 3 0
4073 444 1 4.1499999999999998e-01 1.7879689830097973e+00 1.9671509202490756e+00 3.6995103781642229e+01 0 1 0
6189 444 1 4.1499999999999998e-01 2.2972135004508329e+00 3.0921799423262426e+00 3.9925047602175589e+01 -3 1 0
1224 444 1 4.1499999999999998e-01 2.9253425704270297e+00 3.7608254299318826e+00 3.6018071140267267e+01 -2 0 0
3477 444 1 4.1499999999999998e-01 5.3774417026552834e+00 3.8092928401471471e+00 3.8578967108999585e+01 -1 2 0
1688 444 1 4.1499999999999998e-01 5.5220736956425687e-01 1.3272483370937600e+00 3.8680202647881934e+01 2 2 0
1311 444 1 4.1499999999999998e-01 1.8414541457939577e+00 5.4417257268358057e+00 4.0372478141425944e+01 3 1 0
6188 444 1 4.1499999999999998e-01 3.0333265732361863e+00 3.5184384031540654e+00 3.8672715152358094e+01 -3 1 0
2546 444 1 4.1499999999999998e-01 3.2172793108542335e+00 3.6793607366981980e+00 3.3391907742007824e+01 -4 5 0
2545 444 2 -8.2999999999999996e-01 3.6326785038841645e+00 3.6017132667314509e+00 3.4250771304548365e+01 -4 5 0
6187 444 2 -8.2999999999999996e-01 2.7748490410087037e+00 3.8274434847614445e+00 3.9541011094344213e+01 -3 1 0
4074 444 1 4.1499999999999998e-01 2.6480368006743134e+00 7.5234843528156969e-01 3.7271570212990042e+01 0 1 0
4072 444 2 -8.2999999999999996e-01 1.8303958340088713e+00 1.1761655114106593e+00 3.7532480847842848e+01 0 1 0
3475 444 2 -8.2999999999999996e-01 5.1047364047377020e+00 4.7250723314655305e+00 3.8635640983135424e+01 -1 2 0
3476 444 1 4.1499999999999998e-01 4.2378716814266122e+00 4.6927329239626054e+00 3.9040279529076784e+01 -1 2 0
6809 444 7 0.0000000000000000e+00 1.6907200000000000e+00 5.8607399999999998e+00 0.0000000000000000e+00 0 0 0
6810 444 7 0.0000000000000000e+00 4.2285000000000004e+00 7.3259299999999996e+00 0.0000000000000000e+00 0 0 0
6811 444 7 -7.6390000000000000e-02 1.6907700000000001e+00 5.8607399999999998e+00 7.1781499999999996e+00 0 0 0
6812 444 7 -7.6390000000000000e-02 4.2285500000000003e+00 7.3259299999999996e+00 7.1781499999999996e+00 0 0 0
6813 444 7 0.0000000000000000e+00 2.5366499999999998e+00 7.3259299999999996e+00 2.3926400000000001e+00 0 0 0
6814 444 7 0.0000000000000000e+00 5.0744199999999999e+00 5.8607399999999998e+00 2.3926400000000001e+00 0 0 0
6815 444 7 0.0000000000000000e+00 8.4509000000000001e-01 7.3259299999999996e+00 4.7824200000000001e+00 0 0 0
6816 444 7 0.0000000000000000e+00 3.3828600000000000e+00 5.8607399999999998e+00 4.7824499999999999e+00 0 0 0
6817 444 7 0.0000000000000000e+00 1.6907200000000000e+00 8.7911099999999998e+00 0.0000000000000000e+00 0 0 0
6818 444 7 0.0000000000000000e+00 4.2285000000000004e+00 1.0256300000000000e+01 0.0000000000000000e+00 0 0 0
6819 444 7 -7.6390000000000000e-02 1.6907700000000001e+00 8.7911099999999998e+00 7.1781899999999998e+00 0 0 0
6820 444 7 -7.6390000000000000e-02 4.2285500000000003e+00 1.0256300000000000e+01 7.1781600000000001e+00 0 0 0
6821 444 7 0.0000000000000000e+00 2.5366499999999998e+00 1.0256300000000000e+01 2.3926400000000001e+00 0 0 0
6822 444 7 0.0000000000000000e+00 5.0744199999999999e+00 8.7911099999999998e+00 2.3926400000000001e+00 0 0 0
6823 444 7 0.0000000000000000e+00 8.4509000000000001e-01 1.0256300000000000e+01 4.7824499999999999e+00 0 0 0
6824 444 7 0.0000000000000000e+00 3.3828700000000000e+00 8.7911099999999998e+00 4.7824400000000002e+00 0 0 0
4992 444 1 4.1499999999999998e-01 3.6106762687060971e+00 9.2299074457772026e+00 1.0655840187885225e+01 -1 1 0
4990 444 2 -8.2999999999999996e-01 3.0191465411693801e+00 8.7430293926911702e+00 1.0082014903356365e+01 -1 1 0
4716 444 1 4.1499999999999998e-01 3.8930663662175475e+00 6.8260459252433368e+00 1.3993804679616492e+01 2 1 0
5797 444 2 -8.2999999999999996e-01 2.1355287954440811e+00 6.6823610906406072e+00 1.1593001483187615e+01 -2 1 0
4991 444 1 4.1499999999999998e-01 2.9353484780526422e+00 9.2919445033803658e+00 9.3023339143619097e+00 -1 1 0
5798 444 1 4.1499999999999998e-01 2.3995031671647626e+00 7.4007174689636921e+00 1.1018098423561241e+01 -2 1 0
1956 444 1 4.1499999999999998e-01 1.6253445798830073e+00 1.0037265796560538e+01 1.5137945792053683e+01 2 -1 0
2214 444 1 4.1499999999999998e-01 6.5922117432720173e-01 8.6493680112828297e+00 1.4271377463861352e+01 1 -2 0
4715 444 1 4.1499999999999998e-01 2.6942830702779097e+00 6.6246833322832552e+00 1.3091437262765531e+01 2 1 0
4714 444 2 -8.2999999999999996e-01 2.9658238364486702e+00 6.5889093266485812e+00 1.4008616488401190e+01 2 1 0
2655 444 1 4.1499999999999998e-01 4.5315759416999107e-01 8.8921754273915763e+00 9.1588262631873683e+00 -2 2 0
2212 444 2 -8.2999999999999996e-01 9.8954528134438624e-01 8.2462757019697115e+00 1.5074268761602704e+01 1 -2 0
2213 444 1 4.1499999999999998e-01 1.5622270869616681e+00 7.5417643872050357e+00 1.4771067125744887e+01 1 -2 0
4619 444 1 4.1499999999999998e-01 1.7679424834734683e-01 1.1106706838808028e+01 1.0534589272954824e+01 -3 5 0
5892 444 1 4.1499999999999998e-01 7.3996860952664156e-01 7.4621364101176688e+00 1.1928264698645842e+01 3 1 0
5799 444 1 4.1499999999999998e-01 2.0367502434623850e+00 5.9309522169398443e+00 1.1008313987297173e+01 -2 1 0
1955 444 1 4.1499999999999998e-01 1.2924426150741175e+00 1.1290744875898440e+01 1.4357008648235157e+01 2 -1 0
3199 444 2 -8.2999999999999996e-01 5.5262059258049083e+00 7.3658422532601309e+00 1.4071683765125403e+01 -4 3 0
1692 444 1 4.1499999999999998e-01 4.4230940398909206e+00 7.6354905904655244e+00 9.8053209403389836e+00 4 1 0
2813 444 1 4.1499999999999998e-01 2.6328286607251856e+00 1.1053197426670389e+01 1.1517445948687040e+01 3 2 0
1954 444 2 -8.2999999999999996e-01 1.8729143171562621e+00 1.0956793867867038e+01 1.5040940023819797e+01 2 -1 0
2812 444 2 -8.2999999999999996e-01 3.5706976309941800e+00 1.0861891518943720e+01 1.1511460911124212e+01 3 2 0
1690 444 2 -8.2999999999999996e-01 5.3662006097566000e+00 7.4723596836988744e+00 9.7922514844768891e+00 4 1 0
2814 444 1 4.1499999999999998e-01 3.9783932688509749e+00 1.1669599906114504e+01 1.1199013475568487e+01 3 2 0
4618 444 2 -8.2999999999999996e-01 8.8793971493712365e-01 1.1696750588204440e+01 1.0284884121957305e+01 -3 5 0
770 444 5 1.4000000000000001e-01 5.1888051082742361e+00 1.1358018673188244e+01 1.5350221783624608e+01 1 1 0
788 444 6 2.9999999999999999e-02 4.6387447234556092e+00 1.0638965442308962e+01 1.4922263023712327e+01 1 1 0
1691 444 1 4.1499999999999998e-01 5.4818218858717245e+00 6.7852109974465504e+00 9.1359813798699783e+00 4 1 0
3200 444 1 4.1499999999999998e-01 5.5350571183916504e+00 8.3229545881070202e+00 1.4081145948514539e+01 -4 3 0
5885 444 1 4.1499999999999998e-01 1.5152946490808359e+00 6.3850743291104690e+00 2.1225215139513583e+01 -4 4 0
3256 444 2 -8.2999999999999996e-01 3.7998340948043148e+00 1.0377886784065746e+01 2.3283499727548904e+01 2 -5 0
3258 444 1 4.1499999999999998e-01 3.2551237980113061e+00 1.0680605843669325e+01 2.4010055810456663e+01 2 -5 0
6135 444 1 4.1499999999999998e-01 3.4717247899750636e+00 6.9544971762749874e+00 1.9535790266704289e+01 0 -2 0
5070 444 1 4.1499999999999998e-01 5.6268849744119154e-01 7.9958068505252342e+00 1.7190874189344658e+01 -1 1 0
3279 444 1 4.1499999999999998e-01 1.2838418749072478e+00 8.3351194626416625e+00 2.2008538065982140e+01 1 1 0
3277 444 2 -8.2999999999999996e-01 2.1255509995068103e+00 8.7818823539245834e+00 2.2098876103924486e+01 1 1 0
3278 444 1 4.1499999999999998e-01 2.6848785692361878e+00 8.3762258118828044e+00 2.1436434991342583e+01 1 1 0
3257 444 1 4.1499999999999998e-01 3.2647263752954410e+00 9.7193519142922682e+00 2.2840528600094835e+01 2 -5 0
780 444 6 2.9999999999999999e-02 3.1430447679409941e+00 9.5964637045580155e+00 1.7536527390750742e+01 1 1 0
766 444 5 1.4000000000000001e-01 3.8820664829336886e+00 1.0119771557056142e+01 1.8178953179196295e+01 1 1 0
5068 444 2 -8.2999999999999996e-01 9.1288871159942853e-01 7.8810735636054270e+00 1.8074292640482426e+01 -1 1 0
781 444 6 2.9999999999999999e-02 4.0215870230102126e+00 9.4407681976558990e+00 1.8987326576586593e+01 1 1 0
6134 444 1 4.1499999999999998e-01 2.0757145327194855e+00 7.3251534808730057e+00 1.9082287816765092e+01 0 -2 0
6133 444 2 -8.2999999999999996e-01 2.6056564677103289e+00 7.1907243128413620e+00 1.9867986371818187e+01 0 -2 0
776 444 6 2.9999999999999999e-02 2.8471889459305193e+00 1.0892963401850679e+01 2.0530237514887087e+01 1 1 0
768 444 5 1.4000000000000001e-01 5.2112479902143027e+00 1.0349319259936133e+01 1.7454813021115669e+01 1 1 0
4292 444 1 4.1499999999999998e-01 5.0124017819900564e+00 6.1292943770320463e+00 2.0002781413803977e+01 4 2 0
2756 444 1 4.1499999999999998e-01 1.3731795358908272e-01 1.1013346835624118e+01 2.2829264651888224e+01 2 5 0
1615 444 2 -8.2999999999999996e-01 3.8656644395140463e+00 6.0634453280391725e+00 2.4264449965835404e+01 5 1 0
4291 444 2 -8.2999999999999996e-01 5.1780363800767839e+00 6.4963698140217350e+00 1.9134419055553849e+01 4 2 0
5069 444 1 4.1499999999999998e-01 1.3832185827026078e-01 7.8029127497193915e+00 1.8631221868518807e+01 -1 1 0
758 444 4 -4.0000000000000002e-01 3.4341611803819396e+00 1.1452862703314947e+01 1.8616831463667996e+01 1 1 0
777 444 6 2.9999999999999999e-02 1.5536502366523894e+00 1.0756178028087941e+01 1.9250127524848299e+01 1 1 0
1617 444 1 4.1499999999999998e-01 3.9963529748992399e+00 5.8811775619539448e+00 2.3333895912438109e+01 5 1 0
764 444 5 1.4000000000000001e-01 2.3873133628499681e+00 1.1355856392745249e+01 1.9589831679197403e+01 1 1 0
760 444 4 -4.0000000000000002e-01 4.9689229895251330e+00 1.1582549219293599e+01 1.6783641497370485e+01 1 1 0
785 444 6 2.9999999999999999e-02 5.3966465112251658e+00 9.4775438925879136e+00 1.6846239094262806e+01 1 1 0
1983 444 1 4.1499999999999998e-01 2.3560913296008374e+00 7.0326045524039911e+00 3.1399285040271756e+01 2 -4 0
3375 444 1 4.1499999999999998e-01 3.1592552440501716e+00 7.4476509578828400e+00 2.9036148683956508e+01 2 -1 0
3718 444 2 -8.2999999999999996e-01 1.1107520268360960e+00 6.5395843806522889e+00 2.4484917779475186e+01 -5 1 0
3719 444 1 4.1499999999999998e-01 2.0610651907563193e+00 6.4250078037489651e+00 2.4488085625067260e+01 -5 1 0
2725 444 2 -8.2999999999999996e-01 5.5014037816514954e+00 8.6241604104481677e+00 2.7077322058930516e+01 2 3 0
1981 444 2 -8.2999999999999996e-01 1.4562348989612039e+00 7.2640411990574147e+00 3.1169223871537689e+01 2 -4 0
932 444 1 4.1499999999999998e-01 1.5552724798998265e+00 9.0967593171619026e+00 3.1486451444294570e+01 3 2 0
3300 444 1 4.1499999999999998e-01 2.6520112428972484e+00 1.1019670960123605e+01 2.6476821765749598e+01 -1 0 0
6172 444 2 -8.2999999999999996e-01 2.9838641426142559e-01 8.8398790176730309e+00 2.5409193781535496e+01 0 -2 0
1982 444 1 4.1499999999999998e-01 9.4689526035129956e-01 6.4799465427255729e+00 3.1374164836061766e+01 2 -4 0
3373 444 2 -8.2999999999999996e-01 2.8084424683304174e+00 8.2130326658086865e+00 2.8580788246664998e+01 2 -1 0
6174 444 1 4.1499999999999998e-01 5.3289159364055139e-01 8.0446630852512353e+00 2.4930789321567751e+01 0 -2 0
4899 444 1 4.1499999999999998e-01 2.6188767561631594e+00 9.9740505197434874e+00 2.8584116315717019e+01 -5 1 0
4897 444 2 -8.2999999999999996e-01 2.3896614190029073e+00 1.0859519933068333e+01 2.8301914942647027e+01 -5 1 0
4898 444 1 4.1499999999999998e-01 2.4317152767667056e+00 1.1384556646009278e+01 2.9101165116778240e+01 -5 1 0
3298 444 2 -8.2999999999999996e-01 2.1981592748751693e+00 1.1145549613327669e+01 2.5643512195893766e+01 -1 0 0
2727 444 1 4.1499999999999998e-01 4.6406655711705938e+00 8.2198060182650448e+00 2.7186223942959799e+01 2 3 0
933 444 1 4.1499999999999998e-01 7.8800967778363562e-01 1.0394571108006332e+01 3.1349016715820124e+01 3 2 0
931 444 2 -8.2999999999999996e-01 1.5626965314728383e+00 1.0013338850807347e+01 3.1762241486821679e+01 3 2 0
6173 444 1 4.1499999999999998e-01 1.1259903726152378e+00 9.3089656012748492e+00 2.5515313235892997e+01 0 -2 0
4149 444 1 4.1499999999999998e-01 5.0343023570144156e+00 1.0454321142283908e+01 3.1612835251653291e+01 1 2 0
4148 444 1 4.1499999999999998e-01 3.7135440433798954e+00 9.8363392285925642e+00 3.2019764902629205e+01 1 2 0
4147 444 2 -8.2999999999999996e-01 4.6502735092830720e+00 9.6489258349225775e+00 3.1959380668383403e+01 1 2 0
2726 444 1 4.1499999999999998e-01 5.3833221869098971e+00 9.5248705961066182e+00 2.7379001309654850e+01 2 3 0
3374 444 1 4.1499999999999998e-01 1.9262471976547302e+00 7.9517477608331735e+00 2.8316792859718031e+01 2 -1 0
1616 444 1 4.1499999999999998e-01 4.7162855949297837e+00 6.3797259039824237e+00 2.4568821754379837e+01 5 1 0
4408 444 2 -8.2999999999999996e-01 3.7825467531335057e+00 5.9421545247552912e+00 2.9475099629764486e+01 -3 -4 0
6004 444 2 -8.2999999999999996e-01 6.0774898536360911e-01 6.5074166365258668e+00 2.7372202375474647e+01 2 0 0
6006 444 1 4.1499999999999998e-01 6.7918728755989630e-02 6.5093770280550700e+00 2.6581752131474470e+01 2 0 0
3299 444 1 4.1499999999999998e-01 1.4464889206541425e+00 1.1697023237479893e+01 2.5860538477631575e+01 -1 0 0
4710 444 1 4.1499999999999998e-01 5.6768929209920369e+00 1.1594717540833290e+01 2.6135329204585339e+01 -3 1 0
3342 444 1 4.1499999999999998e-01 2.5062013996772947e-01 9.2729127241053089e+00 3.7269802752427864e+01 -2 2 0
6313 444 2 -8.2999999999999996e-01 1.6584127800413515e+00 7.8068061437980578e+00 3.4148927666679718e+01 -1 0 0
6315 444 1 4.1499999999999998e-01 2.2295608710586063e+00 8.5695343684385747e+00 3.4058000222812311e+01 -1 0 0
2537 444 1 4.1499999999999998e-01 3.8256851564715394e-01 6.8761127836876090e+00 3.9229450868647554e+01 -1 -4 0
3340 444 2 -8.2999999999999996e-01 1.1694671832398738e-01 9.4883536358218912e+00 3.8192813563906213e+01 -2 2 0
4930 444 2 -8.2999999999999996e-01 5.6585202371353356e+00 9.2795234184967388e+00 3.9262141583268004e+01 3 2 0
6314 444 1 4.1499999999999998e-01 2.1279776649104782e+00 7.1010163621012659e+00 3.3704402650093932e+01 -1 0 0
4131 444 1 4.1499999999999998e-01 4.7950531784031032e+00 6.4976968330647855e+00 3.8199204946576117e+01 3 3 0
4882 444 2 -8.2999999999999996e-01 3.6610086278876071e+00 6.5351515931502782e+00 3.2586928905854172e+01 1 2 0
4130 444 1 4.1499999999999998e-01 4.6516827464547230e+00 7.9957829274415948e+00 3.8034649538307676e+01 3 3 0
4931 444 1 4.1499999999999998e-01 5.3409806839168583e+00 9.8812498267039022e+00 3.8588846825103602e+01 3 2 0
3013 444 2 -8.2999999999999996e-01 3.8803599127588400e+00 9.4264638671211021e+00 3.5756664726238753e+01 4 -3 0
3015 444 1 4.1499999999999998e-01 3.7243253171486046e+00 8.7547482169651865e+00 3.6420504668728924e+01 4 -3 0
3446 444 1 4.1499999999999998e-01 3.4864274302027005e+00 1.1075408235065419e+01 3.5963761026014538e+01 1 5 0
974 444 1 4.1499999999999998e-01 1.8354814043840062e+00 7.2353895706778060e+00 3.5782266597249340e+01 0 -1 0
3014 444 1 4.1499999999999998e-01 4.7599905656489145e+00 9.2398500023542862e+00 3.5428551985949404e+01 4 -3 0
965 444 1 4.1499999999999998e-01 5.8123961338766272e-01 1.1416815349810280e+01 3.8491998853930376e+01 -5 4 0
1110 444 1 4.1499999999999998e-01 5.4671404984074075e+00 8.6336647752219680e+00 3.3422891836909230e+01 -1 3 0
975 444 1 4.1499999999999998e-01 2.7887014165937631e+00 6.6700039366676025e+00 3.6813579822893374e+01 0 -1 0
1309 444 2 -8.2999999999999996e-01 1.3783501894335628e+00 6.2526628586087654e+00 4.0582591976587977e+01 3 1 0
973 444 2 -8.2999999999999996e-01 1.8697576110423240e+00 6.6592468302292342e+00 3.6545887682616154e+01 0 -1 0
2538 444 1 4.1499999999999998e-01 5.4607734169312294e-01 6.6881179154279371e+00 3.7736193352948732e+01 -1 -4 0
5847 444 1 4.1499999999999998e-01 1.2983195759763098e+00 1.1360983308247087e+01 3.3414316238136912e+01 0 3 0
4129 444 2 -8.2999999999999996e-01 4.3277137108656332e+00 7.1623252903574945e+00 3.7693146014378677e+01 3 3 0
4884 444 1 4.1499999999999998e-01 4.4861439060253776e+00 6.7231114051438281e+00 3.3034203904948619e+01 1 2 0
1310 444 1 4.1499999999999998e-01 2.0007408588865121e+00 6.7551554772863849e+00 4.1108294271269997e+01 3 1 0
6825 444 7 0.0000000000000000e+00 1.6907200000000000e+00 1.1721480000000000e+01 0.0000000000000000e+00 0 0 0
6826 444 7 0.0000000000000000e+00 4.2285000000000004e+00 1.3186669999999999e+01 0.0000000000000000e+00 0 0 0
6827 444 7 -7.6390000000000000e-02 1.6907700000000001e+00 1.1721480000000000e+01 7.1781499999999996e+00 0 0 0
6828 444 7 -7.6390000000000000e-02 4.2285500000000003e+00 1.3186669999999999e+01 7.1781499999999996e+00 0 0 0
6829 444 7 0.0000000000000000e+00 2.5366499999999998e+00 1.3186669999999999e+01 2.3926400000000001e+00 0 0 0
6830 444 7 0.0000000000000000e+00 5.0744199999999999e+00 1.1721480000000000e+01 2.3926400000000001e+00 0 0 0
6831 444 7 0.0000000000000000e+00 8.4509000000000001e-01 1.3186669999999999e+01 4.7824200000000001e+00 0 0 0
6832 444 7 0.0000000000000000e+00 3.3828600000000000e+00 1.1721480000000000e+01 4.7824499999999999e+00 0 0 0
6833 444 7 0.0000000000000000e+00 1.6907200000000000e+00 1.4651850000000000e+01 0.0000000000000000e+00 0 0 0
6835 444 7 -7.6390000000000000e-02 1.6907700000000001e+00 1.4651850000000000e+01 7.1781899999999998e+00 0 0 0
6838 444 7 0.0000000000000000e+00 5.0744199999999999e+00 1.4651850000000000e+01 2.3926400000000001e+00 0 0 0
6840 444 7 0.0000000000000000e+00 3.3828700000000000e+00 1.4651850000000000e+01 4.7824400000000002e+00 0 0 0
6834 444 7 0.0000000000000000e+00 4.2285000000000004e+00 1.6117039999999999e+01 0.0000000000000000e+00 0 0 0
6836 444 7 -7.6390000000000000e-02 4.2285500000000003e+00 1.6117039999999999e+01 7.1781600000000001e+00 0 0 0
6837 444 7 0.0000000000000000e+00 2.5366499999999998e+00 1.6117039999999999e+01 2.3926400000000001e+00 0 0 0
6839 444 7 0.0000000000000000e+00 8.4509000000000001e-01 1.6117039999999999e+01 4.7824499999999999e+00 0 0 0
786 444 6 2.9999999999999999e-02 3.3256621410064824e+00 1.4764848113087394e+01 1.4427061587660578e+01 1 1 0
4620 444 1 4.1499999999999998e-01 5.6370581171520551e-01 1.2146684491500263e+01 9.5047149469797336e+00 -3 5 0