LAMMPS data file via write_data, version 11 Aug 2017, timestep = 5000000

7224 atoms
7 atom types
4080 bonds
5 bond types
2130 angles
3 angle types
150 dihedrals
2 dihedral types

0.0000000000000000e+00 4.5679949999999998e+01 xlo xhi
0.0000000000000000e+00 4.6885919999999999e+01 ylo yhi
0.0000000000000000e+00 6.5000000000000000e+01 zlo zhi

Masses

1 1.0079
2 15.9994
3 22.9898
4 15.9994
5 12.011
6 1.0079
7 107.868

Angle Coeffs # harmonic

1 50 109.471
2 50 104.51
3 55 104.52

Dihedral Coeffs # charmm

1 0.111111 3 0 0
2 0.333333 3 0 0

Atoms # full

6073 444 7 0.0000000000000000e+00 1.6907200000000000e+00 0.0000000000000000e+00 0.0000000000000000e+00 0 0 0
6074 444 7 0.0000000000000000e+00 4.2285000000000004e+00 1.4651900000000000e+00 0.0000000000000000e+00 0 0 0
6075 444 7 -6.9400000000000000e-03 1.6907700000000001e+00 0.0000000000000000e+00 7.1781499999999996e+00 0 0 0
6076 444 7 -6.9400000000000000e-03 4.2285500000000003e+00 1.4651900000000000e+00 7.1781499999999996e+00 0 0 0
6077 444 7 0.0000000000000000e+00 2.5366499999999998e+00 1.4651900000000000e+00 2.3926400000000001e+00 0 0 0
6078 444 7 0.0000000000000000e+00 5.0744199999999999e+00 0.0000000000000000e+00 2.3926400000000001e+00 0 0 0
6079 444 7 0.0000000000000000e+00 8.4509000000000001e-01 1.4651900000000000e+00 4.7824200000000001e+00 0 0 0
6080 444 7 0.0000000000000000e+00 3.3828600000000000e+00 0.0000000000000000e+00 4.7824499999999999e+00 0 0 0
6081 444 7 0.0000000000000000e+00 1.6907200000000000e+00 2.9303699999999999e+00 0.0000000000000000e+00 0 0 0
6082 444 7 0.0000000000000000e+00 4.2285000000000004e+00 4.3955599999999997e+00 0.0000000000000000e+00 0 0 0
6083 444 7 -6.9400000000000000e-03 1.6907700000000001e+00 2.9303699999999999e+00 7.1781899999999998e+00 0 0 0
6084 444 7 -6.9400000000000000e-03 4.2285500000000003e+00 4.3955599999999997e+00 7.1781600000000001e+00 0 0 0
6085 444 7 0.0000000000000000e+00 2.5366499999999998e+00 4.3955599999999997e+00 2.3926400000000001e+00 0 0 0
6086 444 7 0.0000000000000000e+00 5.0744199999999999e+00 2.9303699999999999e+00 2.3926400000000001e+00 0 0 0
6087 444 7 0.0000000000000000e+00 8.4509000000000001e-01 4.3955599999999997e+00 4.7824499999999999e+00 0 0 0
6088 444 7 0.0000000000000000e+00 3.3828700000000000e+00 2.9303699999999999e+00 4.7824400000000002e+00 0 0 0
6089 444 7 0.0000000000000000e+00 1.6907200000000000e+00 5.8607399999999998e+00 0.0000000000000000e+00 0 0 0
6090 444 7 0.0000000000000000e+00 4.2285000000000004e+00 7.3259299999999996e+00 0.0000000000000000e+00 0 0 0
6091 444 7 -6.9400000000000000e-03 1.6907700000000001e+00 5.8607399999999998e+00 7.1781499999999996e+00 0 0 0
6092 444 7 -6.9400000000000000e-03 4.2285500000000003e+00 7.3259299999999996e+00 7.1781499999999996e+00 0 0 0
6093 444 7 0.0000000000000000e+00 2.5366499999999998e+00 7.3259299999999996e+00 2.3926400000000001e+00 0 0 0
6094 444 7 0.0000000000000000e+00 5.0744199999999999e+00 5.8607399999999998e+00 2.3926400000000001e+00 0 0 0
6095 444 7 0.0000000000000000e+00 8.4509000000000001e-01 7.3259299999999996e+00 4.7824200000000001e+00 0 0 0
6096 444 7 0.0000000000000000e+00 3.3828600000000000e+00 5.8607399999999998e+00 4.7824499999999999e+00 0 0 0
6201 444 7 0.0000000000000000e+00 6.7662699999999996e+00 0.0000000000000000e+00 0.0000000000000000e+00 0 0 0
6202 444 7 0.0000000000000000e+00 9.3040500000000002e+00 1.4651900000000000e+00 0.0000000000000000e+00 0 0 0
6203 444 7 -6.9400000000000000e-03 6.7663200000000003e+00 0.0000000000000000e+00 7.1781499999999996e+00 0 0 0
6204 444 7 -6.9400000000000000e-03 9.3041000000000000e+00 1.4651900000000000e+00 7.1781499999999996e+00 0 0 0
6205 444 7 0.0000000000000000e+00 7.6121999999999996e+00 1.4651900000000000e+00 2.3926400000000001e+00 0 0 0
6206 444 7 0.0000000000000000e+00 1.0149970000000000e+01 0.0000000000000000e+00 2.3926400000000001e+00 0 0 0
6207 444 7 0.0000000000000000e+00 5.9206399999999997e+00 1.4651900000000000e+00 4.7824200000000001e+00 0 0 0
6208 444 7 0.0000000000000000e+00 8.4584100000000007e+00 0.0000000000000000e+00 4.7824499999999999e+00 0 0 0
6209 444 7 0.0000000000000000e+00 6.7662699999999996e+00 2.9303699999999999e+00 0.0000000000000000e+00 0 0 0
6210 444 7 0.0000000000000000e+00 9.3040500000000002e+00 4.3955599999999997e+00 0.0000000000000000e+00 0 0 0
6211 444 7 -6.9400000000000000e-03 6.7663200000000003e+00 2.9303699999999999e+00 7.1781899999999998e+00 0 0 0
6212 444 7 -6.9400000000000000e-03 9.3041000000000000e+00 4.3955599999999997e+00 7.1781600000000001e+00 0 0 0
6213 444 7 0.0000000000000000e+00 7.6121999999999996e+00 4.3955599999999997e+00 2.3926400000000001e+00 0 0 0
6214 444 7 0.0000000000000000e+00 1.0149970000000000e+01 2.9303699999999999e+00 2.3926400000000001e+00 0 0 0
6215 444 7 0.0000000000000000e+00 5.9206399999999997e+00 4.3955599999999997e+00 4.7824499999999999e+00 0 0 0
6216 444 7 0.0000000000000000e+00 8.4584200000000003e+00 2.9303699999999999e+00 4.7824400000000002e+00 0 0 0
6335 444 7 0.0000000000000000e+00 1.0996190000000000e+01 1.4651900000000000e+00 4.7824200000000001e+00 0 0 0
6343 444 7 0.0000000000000000e+00 1.0996190000000000e+01 4.3955599999999997e+00 4.7824499999999999e+00 0 0 0
6217 444 7 0.0000000000000000e+00 6.7662699999999996e+00 5.8607399999999998e+00 0.0000000000000000e+00 0 0 0
6218 444 7 0.0000000000000000e+00 9.3040500000000002e+00 7.3259299999999996e+00 0.0000000000000000e+00 0 0 0
6219 444 7 -6.9400000000000000e-03 6.7663200000000003e+00 5.8607399999999998e+00 7.1781499999999996e+00 0 0 0
6220 444 7 -6.9400000000000000e-03 9.3041000000000000e+00 7.3259299999999996e+00 7.1781499999999996e+00 0 0 0
6221 444 7 0.0000000000000000e+00 7.6121999999999996e+00 7.3259299999999996e+00 2.3926400000000001e+00 0 0 0
6222 444 7 0.0000000000000000e+00 1.0149970000000000e+01 5.8607399999999998e+00 2.3926400000000001e+00 0 0 0
6223 444 7 0.0000000000000000e+00 5.9206399999999997e+00 7.3259299999999996e+00 4.7824200000000001e+00 0 0 0
6224 444 7 0.0000000000000000e+00 8.4584100000000007e+00 5.8607399999999998e+00 4.7824499999999999e+00 0 0 0
6351 444 7 0.0000000000000000e+00 1.0996190000000000e+01 7.3259299999999996e+00 4.7824200000000001e+00 0 0 0
2690 444 1 4.1499999999999998e-01 8.6857404384178931e+00 1.3199432754919218e+00 1.0303705549577309e+01 -2 -1 0
2689 444 2 -8.2999999999999996e-01 9.2636697225254725e+00 2.0771250459300994e+00 1.0398073348457931e+01 -2 -1 0
2691 444 1 4.1499999999999998e-01 8.6959606260192253e+00 2.7723789616352019e+00 1.0730579396071143e+01 -2 -1 0
3788 444 1 4.1499999999999998e-01 1.0501509869100930e+01 3.1594171865044753e+00 1.0542709038384405e+01 3 6 0
5681 444 1 4.1499999999999998e-01 4.6828306567106335e+00 3.3476754842410616e+00 1.3473894677042194e+01 5 0 0
5680 444 2 -8.2999999999999996e-01 4.6214613521036911e+00 2.3926056022283744e+00 1.3456333643555508e+01 5 0 0
4343 444 1 4.1499999999999998e-01 1.9668420740781825e-01 6.8690700742876443e+00 1.4431938244449610e+01 0 -2 0
3789 444 1 4.1499999999999998e-01 1.0723582838004743e+01 4.4512281375292178e+00 9.7852110646046899e+00 3 6 0
4238 444 1 4.1499999999999998e-01 6.5206615999408220e+00 3.8193174464572976e+00 1.0866852407274624e+01 3 1 0
5682 444 1 4.1499999999999998e-01 5.3614494780207274e+00 2.0948060205908230e+00 1.3985451101354224e+01 5 0 0
4237 444 2 -8.2999999999999996e-01 7.4667346872115079e+00 3.7975963321375223e+00 1.1010750479977412e+01 3 1 0
4239 444 1 4.1499999999999998e-01 7.6116363438163814e+00 4.3948334483285763e+00 1.1744605879340593e+01 3 1 0
1171 444 2 -8.2999999999999996e-01 1.7320043475220087e-01 5.1607780647247408e+00 1.3745748954944682e+01 0 -4 0
1316 444 1 4.1499999999999998e-01 1.4358080064707091e+00 4.4814782635570332e+00 1.4893136223457153e+01 -3 -6 0
257 444 1 4.1499999999999998e-01 6.4706457402484361e+00 4.8717984459714634e+00 1.3753987479469288e+01 -4 3 0
3787 444 2 -8.2999999999999996e-01 1.1184642000158583e+01 3.7795014870914119e+00 1.0287644709816748e+01 3 6 0
3387 444 1 4.1499999999999998e-01 1.3170111022081582e-01 5.6939287384612030e+00 9.9952787996538035e+00 2 0 0
256 444 2 -8.2999999999999996e-01 5.5254226161814666e+00 4.8909331747483122e+00 1.3903716951286128e+01 -4 3 0
4953 444 1 4.1499999999999998e-01 5.0168052814626805e+00 3.9502317840707319e+00 1.6018456197402802e+01 6 -3 0
258 444 1 4.1499999999999998e-01 5.2393388685161915e+00 5.7224678591593214e+00 1.3525645532159940e+01 -4 3 0
5003 444 1 4.1499999999999998e-01 8.6745903683464700e+00 5.0697462749474704e+00 9.9078781686232453e+00 1 1 0
100 444 2 -8.2999999999999996e-01 4.8053267735646585e+00 7.5243881754119082e+00 1.3201123084079619e+01 1 -1 0
4121 444 1 4.1499999999999998e-01 1.3546198405569640e+00 3.6649655195139168e+00 1.0759375899344057e+01 2 -1 0
4120 444 2 -8.2999999999999996e-01 2.2678438898385247e+00 3.4643791595082583e+00 1.0554390609153085e+01 2 -1 0
1315 444 2 -8.2999999999999996e-01 2.3080940637486207e+00 4.2090586832039110e+00 1.5177982889964424e+01 -3 -6 0
3396 444 1 4.1499999999999998e-01 8.1369212553106145e+00 6.6245902859113741e+00 1.3138734288017440e+01 -3 -2 0
3395 444 1 4.1499999999999998e-01 9.1622656845426178e+00 5.5176449449240206e+00 1.3015300150519861e+01 -3 -2 0
3394 444 2 -8.2999999999999996e-01 8.2321954924049390e+00 5.6730289104513192e+00 1.3179790522581230e+01 -3 -2 0
3385 444 2 -8.2999999999999996e-01 1.5679248327829148e-01 6.4570117267231781e+00 1.0572605940711034e+01 2 0 0
1486 444 2 -8.2999999999999996e-01 4.9928792596302278e+00 1.2072133976449069e+00 1.0952016594658701e+01 2 2 0
2375 444 1 4.1499999999999998e-01 8.2167964534404483e+00 8.7610028574180199e-01 1.3463206301274171e+01 -5 0 0
4122 444 1 4.1499999999999998e-01 2.3112073116837437e+00 2.5081970578838724e+00 1.0562596026054084e+01 2 -1 0
1643 444 1 4.1499999999999998e-01 9.0378435523484093e+00 2.6803695527694145e+00 1.4947154793883593e+01 1 1 0
1317 444 1 4.1499999999999998e-01 2.8991932717129529e+00 4.5645928707749777e+00 1.4514334405549592e+01 -3 -6 0
5245 444 2 -8.2999999999999996e-01 4.7011740741985477e+00 4.1082490595388821e+00 1.0352341096452605e+01 7 2 0
5246 444 1 4.1499999999999998e-01 4.6944257996156020e+00 5.0385030364397796e+00 1.0126921769546483e+01 7 2 0
1642 444 2 -8.2999999999999996e-01 8.9981105003848274e+00 2.2109337262697490e+00 1.4113917588174706e+01 1 1 0
5247 444 1 4.1499999999999998e-01 3.7762902376153629e+00 3.8703782916929099e+00 1.0417450200593272e+01 7 2 0
5002 444 2 -8.2999999999999996e-01 9.3396912761042934e+00 5.7581089671137011e+00 9.9133550297521467e+00 1 1 0
797 444 1 4.1499999999999998e-01 2.0357933523673317e+00 2.4299696471305356e+00 1.5697836828681119e+01 1 -5 0
2379 444 1 4.1499999999999998e-01 1.1275682968937502e+01 6.8330283642027725e+00 9.9884750588487936e+00 -3 6 0
5004 444 1 4.1499999999999998e-01 8.8460550557865947e+00 6.5677372751015959e+00 1.0043959210589440e+01 1 1 0
1644 444 1 4.1499999999999998e-01 9.8815045168370759e+00 1.8630779590117783e+00 1.3992081076156195e+01 1 1 0
1488 444 1 4.1499999999999998e-01 4.8559518599752858e+00 1.7773385928953314e+00 1.1708614692055376e+01 2 2 0
798 444 1 4.1499999999999998e-01 2.0355871927219784e+00 9.8225716698945065e-01 1.5255090899908218e+01 1 -5 0
192 444 1 4.1499999999999998e-01 8.3933018531595083e-01 9.5193784709517626e-01 1.0653420087424244e+01 -2 5 0
4888 444 2 -8.2999999999999996e-01 3.3488234951652367e+00 1.3682595442703696e-01 1.3352167892380880e+01 -3 -2 0
190 444 2 -8.2999999999999996e-01 9.3495939966189903e-03 1.3853931313626855e+00 1.0852117317350887e+01 -2 5 0
3574 444 2 -8.2999999999999996e-01 4.4435886378282650e+00 6.9303314094368806e+00 1.0496229166147522e+01 6 5 0
796 444 2 -8.2999999999999996e-01 1.6697699058142812e+00 1.5723456833695817e+00 1.5914033664147647e+01 1 -5 0
831 444 1 4.1499999999999998e-01 1.1026474303115076e+01 4.8081803471086246e+00 1.1595908914691641e+01 5 -1 0
5162 444 1 4.1499999999999998e-01 1.1111647302718920e+01 6.8041329262981076e-01 1.1987965299131703e+01 -3 -3 0
5163 444 1 4.1499999999999998e-01 1.0754172322586138e+01 5.0787264730040260e-01 1.0527028416134257e+01 -3 -3 0
1911 444 1 4.1499999999999998e-01 3.8165713618598507e+00 7.8047988526746135e+00 1.5514466415727036e+01 6 -3 0
1172 444 1 4.1499999999999998e-01 4.6017081360952772e-01 5.6500610663970274e+00 1.2974722398712364e+01 0 -4 0
1909 444 2 -8.2999999999999996e-01 4.4700786786816193e+00 7.3706162587332305e+00 1.6062777903531956e+01 6 -3 0
5161 444 2 -8.2999999999999996e-01 1.1217734051570950e+01 8.2236282194357482e-02 1.1248261200350404e+01 -3 -3 0
3576 444 1 4.1499999999999998e-01 4.1516136938017372e+00 7.2288295959957551e+00 1.1357554468371626e+01 6 5 0
4889 444 1 4.1499999999999998e-01 3.5735107468568330e+00 1.0348898614036885e+00 1.3108798558538028e+01 -3 -2 0
829 444 2 -8.2999999999999996e-01 1.1015095903709451e+01 5.3205658769588942e+00 1.2404341610694681e+01 5 -1 0
4880 444 1 4.1499999999999998e-01 6.5805171689223849e+00 1.5417157075528048e-02 1.0377220006336671e+01 -5 10 0
2088 444 1 4.1499999999999998e-01 3.1366699357208856e+00 1.7682730569242205e-01 1.0230404838904606e+01 -4 0 0
1487 444 1 4.1499999999999998e-01 5.3582117073279552e+00 1.7832258259797211e+00 1.0280470565194751e+01 2 2 0
3948 444 1 4.1499999999999998e-01 1.3955120000759560e+00 7.5829489298462667e+00 1.0124027569600967e+01 3 0 0
3575 444 1 4.1499999999999998e-01 5.3215510343700307e+00 7.2991458344832472e+00 1.0399328351966451e+01 6 5 0
2376 444 1 4.1499999999999998e-01 7.9743743011309274e+00 4.1812000380080830e-02 1.2223412112142391e+01 -5 0 0
3947 444 1 4.1499999999999998e-01 2.8649254191827485e+00 7.6559505062551940e+00 9.7671100319277109e+00 3 0 0
4342 444 2 -8.2999999999999996e-01 7.3069877781873849e-02 7.8078752037477885e+00 1.4291950531769496e+01 0 -2 0
401 444 1 4.1499999999999998e-01 5.6764094741582696e+00 6.4551163226940824e+00 1.7046341584791353e+01 4 1 0
402 444 1 4.1499999999999998e-01 6.5307280267669459e+00 5.7462225380346226e+00 1.8075664208076034e+01 4 1 0
4325 444 1 4.1499999999999998e-01 6.4962432137685333e+00 5.9191380318271092e-01 1.8786852808444532e+01 -3 5 0
4951 444 2 -8.2999999999999996e-01 4.4019197142800346e+00 3.8113373301343278e+00 1.6738772947205113e+01 6 -3 0
60 444 6 2.9999999999999999e-02 1.8383999717805438e-01 3.2727368942830366e+00 2.1692896520709333e+01 1 0 0
194 444 1 4.1499999999999998e-01 1.8841398501970923e+00 8.1320807199631306e-02 2.2748563827909493e+01 -6 6 0
4952 444 1 4.1499999999999998e-01 3.5957818843050942e+00 4.2406616152527059e+00 1.6452320509375461e+01 6 -3 0
57 444 6 2.9999999999999999e-02 2.2996148024237309e-01 4.4627582182352565e+00 2.3902855802741325e+01 1 0 0
3765 444 1 4.1499999999999998e-01 1.2939312165919954e+00 1.9370587942053966e-01 1.7074840240629523e+01 -4 7 0
4015 444 2 -8.2999999999999996e-01 7.5233110135028838e+00 7.6663932248376394e+00 2.2172316316106379e+01 2 4 0
4683 444 1 4.1499999999999998e-01 5.2324820348075241e+00 6.3809927817952561e-01 2.2059289039264900e+01 -2 2 0
70 444 6 2.9999999999999999e-02 8.2322724768246081e-01 7.0957443015677741e+00 1.7171127406113161e+01 1 0 0
65 444 6 2.9999999999999999e-02 1.1468781815771349e+00 3.0798049831202774e+00 1.9510947581986589e+01 1 0 0
400 444 2 -8.2999999999999996e-01 6.2068513196358825e+00 6.6121055737027277e+00 1.7827506391665576e+01 4 1 0
51 444 5 1.4000000000000001e-01 4.6209156012804092e-01 6.7246525017911862e+00 1.8145626997241735e+01 1 0 0
4682 444 1 4.1499999999999998e-01 4.9009626664690362e+00 1.6810306962087074e+00 2.1013208643020935e+01 -2 2 0
41 444 4 -4.0000000000000002e-01 4.2044082017677165e-01 7.6353718282054368e+00 1.9183039076929649e+01 1 0 0
5826 444 1 4.1499999999999998e-01 5.3365131083795694e+00 2.8100620202517961e+00 1.7932120532162642e+01 -4 -1 0
50 444 5 1.4000000000000001e-01 1.4802360533997769e+00 5.7109725481749489e+00 1.8540949411010232e+01 1 0 0
2360 444 1 4.1499999999999998e-01 8.7705058372412790e+00 4.3456571398105064e+00 1.7036513962469456e+01 6 2 0
69 444 6 2.9999999999999999e-02 2.4582527866446160e+00 6.1394493812139057e+00 1.8543514230394649e+01 1 0 0
1027 444 2 -8.2999999999999996e-01 1.0013817074178698e+01 1.4640561056566952e+00 1.8672700197058614e+01 0 -3 0
4224 444 1 4.1499999999999998e-01 8.4572370936890682e+00 2.0725601156717435e+00 2.2552534535571521e+01 9 3 0
4681 444 2 -8.2999999999999996e-01 5.2462767704240090e+00 1.5819251390298643e+00 2.1900433728616090e+01 -2 2 0
5824 444 2 -8.2999999999999996e-01 5.9577838216667596e+00 2.3527316603492707e+00 1.8498780422927577e+01 -4 -1 0
68 444 6 2.9999999999999999e-02 1.4373557487626418e+00 4.9645221055201461e+00 1.7789901031674273e+01 1 0 0
2814 444 1 4.1499999999999998e-01 5.4011925925466029e+00 4.8273355527990773e+00 2.0661414620481739e+01 7 -2 0
3632 444 1 4.1499999999999998e-01 7.2861713341867160e+00 7.2974453036598028e+00 1.8930415373643498e+01 3 4 0
3631 444 2 -8.2999999999999996e-01 7.9417484553598374e+00 7.3263496987239325e+00 1.9627276198920864e+01 3 4 0
3633 444 1 4.1499999999999998e-01 8.6668987385914029e+00 6.7961400205122349e+00 1.9296721217974039e+01 3 4 0
61 444 6 2.9999999999999999e-02 1.8634932450095256e+00 2.9400222461822794e+00 2.2159905133940910e+01 1 0 0
56 444 6 2.9999999999999999e-02 1.8721284894436485e+00 4.4759264285702143e+00 2.4164915001739040e+01 1 0 0
37 444 4 -4.0000000000000002e-01 1.2569462894685239e+00 7.2259051276151807e+00 2.2890223297740025e+01 1 0 0
5825 444 1 4.1499999999999998e-01 6.0934660138868866e+00 2.9481009361547437e+00 1.9235908359714763e+01 -4 -1 0
4755 444 1 4.1499999999999998e-01 4.8477842803769127e+00 4.5834826972767457e+00 2.2649082051731092e+01 5 -1 0
4753 444 2 -8.2999999999999996e-01 5.3745149119175313e+00 4.1093928488193656e+00 2.3292530851840450e+01 5 -1 0
4754 444 1 4.1499999999999998e-01 5.2972395351847670e+00 3.1905154869287227e+00 2.3035770588400254e+01 5 -1 0
44 444 5 1.4000000000000001e-01 1.1352244421793944e+00 4.9827666629407732e+00 2.3652479354217569e+01 1 0 0
38 444 4 -4.0000000000000002e-01 1.4361284543946509e+00 4.9699961148691605e+00 2.2253492562990996e+01 1 0 0
46 444 5 1.4000000000000001e-01 1.2538681290891434e+00 3.6791471445230757e+00 2.1614846222423004e+01 1 0 0
40 444 4 -4.0000000000000002e-01 1.2499236472717794e+00 5.2091131626479079e+00 1.9888508192786372e+01 1 0 0
48 444 5 1.4000000000000001e-01 1.5604815959093707e+00 3.8903241878391674e+00 2.0142947699919667e+01 1 0 0
64 444 6 2.9999999999999999e-02 2.6453357631720436e+00 3.7832585259562315e+00 2.0010397292909861e+01 1 0 0
3212 444 1 4.1499999999999998e-01 8.4859511782995742e+00 5.5893099091532878e+00 2.2271838157367473e+01 -3 0 0
3211 444 2 -8.2999999999999996e-01 8.8167414180855168e+00 4.6930065444202755e+00 2.2213102143214293e+01 -3 0 0
1028 444 1 4.1499999999999998e-01 1.0240279469027774e+01 2.0988231296963922e+00 1.9352419301303957e+01 0 -3 0
3213 444 1 4.1499999999999998e-01 9.6171628527265494e+00 4.6977197858884763e+00 2.2738016528693372e+01 -3 0 0
2176 444 2 -8.2999999999999996e-01 3.9974997990340357e+00 5.8069909238501864e+00 2.1508591367506124e+01 0 2 0
2812 444 2 -8.2999999999999996e-01 6.1043618142588896e+00 4.1848305331456741e+00 2.0566689592677406e+01 7 -2 0
2178 444 1 4.1499999999999998e-01 3.1667544838803976e+00 5.5017356426426645e+00 2.1873164095037964e+01 0 2 0
2177 444 1 4.1499999999999998e-01 3.7459433975140968e+00 6.3672830877442825e+00 2.0774408898720672e+01 0 2 0
2813 444 1 4.1499999999999998e-01 6.6113772827159405e+00 4.2630456723242780e+00 2.1374804583506972e+01 7 -2 0
4261 444 2 -8.2999999999999996e-01 1.0629076547354035e+01 3.8097120522238495e+00 2.0338213154415026e+01 3 3 0
4222 444 2 -8.2999999999999996e-01 8.0088612846822596e+00 1.2666308192756370e+00 2.2296274840798151e+01 9 3 0
1029 444 1 4.1499999999999998e-01 9.6010713426175105e+00 1.9861232469114607e+00 1.7984717973068868e+01 0 -3 0
4223 444 1 4.1499999999999998e-01 7.1231042850118866e+00 1.5474536995287085e+00 2.2066480895234132e+01 9 3 0
4262 444 1 4.1499999999999998e-01 9.9012942923764182e+00 4.0323124403243096e+00 2.0918742896334479e+01 3 3 0
4263 444 1 4.1499999999999998e-01 1.1081786972633880e+01 3.0940685402529149e+00 2.0784463881591989e+01 3 3 0
2361 444 1 4.1499999999999998e-01 1.0131172873252924e+01 4.0135851792794330e+00 1.6461875830544688e+01 6 2 0
2359 444 2 -8.2999999999999996e-01 9.2555730257969184e+00 3.6497731042629731e+00 1.6593019553661279e+01 6 2 0
195 444 1 4.1499999999999998e-01 5.4663491136358511e-01 5.5764304525825292e-01 2.2223118452323501e+01 -6 6 0
4017 444 1 4.1499999999999998e-01 7.6227501234663029e+00 7.5061473072856906e+00 2.1233878789052930e+01 2 4 0
1978 444 2 -8.2999999999999996e-01 5.6951483949779211e+00 6.5757320155308161e+00 2.4328155519764753e+01 -1 3 0
1980 444 1 4.1499999999999998e-01 5.6279499045876129e+00 5.6874888152748877e+00 2.3977811470353526e+01 -1 3 0
42 444 5 1.4000000000000001e-01 1.0675888181119437e+00 6.4629972585494055e+00 2.4094676015184817e+01 1 0 0
111 444 1 4.1499999999999998e-01 1.0969226637071921e+01 6.3087552151086590e-01 2.3799749635457935e+01 -2 4 0
1047 444 1 4.1499999999999998e-01 4.7807640013762747e+00 7.2955307601866135e+00 1.8987030060220839e+01 1 -9 0
2485 444 2 -8.2999999999999996e-01 9.9754660555857839e+00 6.2471601255223614e+00 1.7928133066318967e+01 -1 0 0
1979 444 1 4.1499999999999998e-01 6.1107818754031706e+00 7.0790460069233658e+00 2.3628044028767047e+01 -1 3 0
2487 444 1 4.1499999999999998e-01 1.0557234095754506e+01 5.7852513284694300e+00 1.7324461846323921e+01 -1 0 0
1045 444 2 -8.2999999999999996e-01 4.1326649402839966e+00 7.6048103966183422e+00 1.9619916732636845e+01 1 -9 0
193 444 2 -8.2999999999999996e-01 1.4535883066736233e+00 4.0555291573030777e-01 2.1957532368887865e+01 -6 6 0
2486 444 1 4.1499999999999998e-01 9.4413482320944180e+00 6.8075226578023589e+00 1.7365154878794772e+01 -1 0 0
703 444 2 -8.2999999999999996e-01 1.0944049867528875e+01 4.4148632158064016e+00 2.3798504378028461e+01 2 1 0
3950 444 1 4.1499999999999998e-01 1.1571844410666603e+00 5.9381526068174473e-01 2.7556452718906638e+01 9 -1 0
5791 444 2 -8.2999999999999996e-01 8.2480267362845137e+00 7.7572425072056701e+00 2.8314370434497310e+01 0 -3 0
3594 444 1 4.1499999999999998e-01 2.5550667054753000e-02 5.9401535190149506e+00 3.0461709984645950e+01 3 -3 0
704 444 1 4.1499999999999998e-01 1.0862067454547748e+01 3.8698581359680611e+00 2.4581115730789147e+01 2 1 0
4490 444 1 4.1499999999999998e-01 1.0775372602608293e+01 7.8092024101229764e+00 3.2224382476298985e+01 1 -2 0
999 444 1 4.1499999999999998e-01 1.5202086230456808e+00 9.8305996275919660e-01 3.1223661308207109e+01 2 -1 0
997 444 2 -8.2999999999999996e-01 1.2527730080250274e+00 1.2285807419529315e+00 3.2109341587869679e+01 2 -1 0
3147 444 1 4.1499999999999998e-01 1.0481027758356623e+01 1.0765323935589981e+00 3.1930387211557665e+01 3 0 0
359 444 1 4.1499999999999998e-01 7.4999822877824753e+00 3.0910418821317021e-01 2.8649991510947224e+01 -2 1 0
3146 444 1 4.1499999999999998e-01 1.0659847608942783e+01 1.8286195587858487e+00 3.0628740245380385e+01 3 0 0
593 444 1 4.1499999999999998e-01 8.5221941945342135e+00 5.2419604317288577e+00 2.5594677634444782e+01 -5 0 0
53 444 6 2.9999999999999999e-02 1.8699943542534889e+00 6.6216559424992187e+00 2.4725556485526564e+01 1 0 0
110 444 1 4.1499999999999998e-01 1.1182178697568721e+01 1.5395073438623752e+00 2.4991779243034173e+01 -2 4 0
262 444 2 -8.2999999999999996e-01 2.5911866236325647e+00 6.3180939795812241e-01 2.9558985964846922e+01 -3 0 0
52 444 6 2.9999999999999999e-02 1.2792082559566345e-01 6.6405799179524871e+00 2.4575313258830779e+01 1 0 0
2404 444 2 -8.2999999999999996e-01 1.0471638921058457e+01 2.4499262067665071e+00 2.6207745109743986e+01 0 1 0
3949 444 2 -8.2999999999999996e-01 2.9637073848684148e-01 5.5129826367991730e-01 2.7140010417341447e+01 9 -1 0
1796 444 1 4.1499999999999998e-01 3.5872422325117315e+00 4.7400760056949540e+00 2.7939968477672767e+01 0 -1 0
5234 444 1 4.1499999999999998e-01 2.6044188197039313e+00 5.3755970822167747e+00 3.0005206200434611e+01 -1 1 0
4128 444 1 4.1499999999999998e-01 5.3194846324030349e+00 3.7748522944422618e+00 2.4970983656934386e+01 0 10 0
594 444 1 4.1499999999999998e-01 7.7345326386827926e+00 6.5329099373630557e+00 2.5524436993681839e+01 -5 0 0
263 444 1 4.1499999999999998e-01 3.2226658554778957e+00 1.3128187723092122e+00 2.9790701310600952e+01 -3 0 0
4100 444 1 4.1499999999999998e-01 6.6974963877158213e+00 2.8903949065670065e+00 2.8584444261322783e+01 -3 -2 0
852 444 1 4.1499999999999998e-01 3.9244073631071417e+00 1.3208002506506751e+00 2.6611799934491589e+01 5 -1 0
850 444 2 -8.2999999999999996e-01 3.5939285285427194e+00 4.5897688900491490e-01 2.6865328035495327e+01 5 -1 0
164 444 1 4.1499999999999998e-01 6.8773586636423447e+00 5.2148146536523301e+00 2.7393431946353793e+01 0 -9 0
4291 444 2 -8.2999999999999996e-01 3.8046124082352204e+00 6.3829922288329222e+00 3.2363153441674953e+01 3 0 0
163 444 2 -8.2999999999999996e-01 6.4681700284360719e+00 4.7224933041218797e+00 2.8105061197043145e+01 0 -9 0
3860 444 1 4.1499999999999998e-01 1.1034874500529490e+01 3.8047191728711378e+00 2.8630071342574322e+01 -2 5 0
592 444 2 -8.2999999999999996e-01 8.0810965665868473e+00 5.8903692445168279e+00 2.6143522614558858e+01 -5 0 0
4126 444 2 -8.2999999999999996e-01 4.9689709158339905e+00 3.2917501726410325e+00 2.5719305085922365e+01 0 10 0
5742 444 1 4.1499999999999998e-01 8.8227440451581209e+00 4.4446564814480327e+00 3.1104982293173791e+01 -4 -1 0
851 444 1 4.1499999999999998e-01 3.3257406319014677e+00 5.6381392004099684e-01 2.7778189767172186e+01 5 -1 0
5233 444 2 -8.2999999999999996e-01 2.3868173144432228e+00 4.5887010378963184e+00 2.9505529652941703e+01 -1 1 0
4127 444 1 4.1499999999999998e-01 4.7703812861441497e+00 3.9663074886321357e+00 2.6368741141105474e+01 0 10 0
165 444 1 4.1499999999999998e-01 5.5307155166457251e+00 4.8862326908412639e+00 2.8002103592287948e+01 0 -9 0
175 444 2 -8.2999999999999996e-01 8.6742013523603489e+00 5.3953905905241752e+00 2.9725102389431441e+01 2 1 0
177 444 1 4.1499999999999998e-01 7.8517895579978880e+00 4.9727055812012120e+00 2.9477699857657083e+01 2 1 0
1795 444 2 -8.2999999999999996e-01 4.1096248569066498e+00 5.1818245577581834e+00 2.7270486271399641e+01 0 -1 0
1292 444 1 4.1499999999999998e-01 4.8130573403500438e+00 3.1477694799564819e+00 3.1133230877754936e+01 2 -1 0
1293 444 1 4.1499999999999998e-01 3.6483382739398103e+00 3.4451683726795967e+00 3.0212970267758379e+01 2 -1 0
5741 444 1 4.1499999999999998e-01 8.9208830610906649e+00 2.9872846903690999e+00 3.1502891053753384e+01 -4 -1 0
5740 444 2 -8.2999999999999996e-01 8.7754662802696650e+00 3.8621388500864238e+00 3.1863052134139537e+01 -4 -1 0
1291 444 2 -8.2999999999999996e-01 4.2872791057347399e+00 2.7663363816673687e+00 3.0430167000869410e+01 2 -1 0
5793 444 1 4.1499999999999998e-01 8.4499745457247570e+00 7.1654418011009708e+00 2.7589648665283139e+01 0 -3 0
176 444 1 4.1499999999999998e-01 8.5259352637535279e+00 6.3259184082282234e+00 2.9556677736626074e+01 2 1 0
2405 444 1 4.1499999999999998e-01 1.0088715136299106e+01 1.7280138145650237e+00 2.6706186786342805e+01 0 1 0
4293 444 1 4.1499999999999998e-01 3.4121222079546656e+00 7.0382274253637007e+00 3.1786221821851033e+01 3 0 0
4292 444 1 4.1499999999999998e-01 4.7228358821476792e+00 6.3465464202127562e+00 3.2095255890879471e+01 3 0 0
5235 444 1 4.1499999999999998e-01 1.4910222522894816e+00 4.7369057231365144e+00 2.9202512861094171e+01 -1 1 0
3859 444 2 -8.2999999999999996e-01 1.0854149451470096e+01 4.6616848422173049e+00 2.8243831870662909e+01 -2 5 0
1767 444 1 4.1499999999999998e-01 8.3729189843244356e+00 5.7077290017838977e-01 3.1519526328135697e+01 -6 2 0
4101 444 1 4.1499999999999998e-01 5.6991934362310204e+00 2.1414484574887660e+00 2.9441395695732357e+01 -3 -2 0
4099 444 2 -8.2999999999999996e-01 6.5485957847597902e+00 2.0462652130164964e+00 2.9010479861304621e+01 -3 -2 0
3145 444 2 -8.2999999999999996e-01 9.9962640933031164e+00 1.4049739198059334e+00 3.1173179276452302e+01 3 0 0
2406 444 1 4.1499999999999998e-01 1.0475113591995918e+01 3.1875102592880022e+00 2.6817818735641620e+01 0 1 0
1797 444 1 4.1499999999999998e-01 3.5341207889250814e+00 5.8669032063504014e+00 2.6930347910588225e+01 0 -1 0
3861 444 1 4.1499999999999998e-01 1.0171625405101356e+01 5.0366602309894075e+00 2.8800417286099478e+01 -2 5 0
4613 444 1 4.1499999999999998e-01 6.9520339891497445e+00 3.4883558663202581e+00 3.2356038569999690e+01 5 -1 0
1423 444 2 -8.2999999999999996e-01 2.2916273617711940e+00 7.4474559424842868e+00 2.7527159548901430e+01 2 -6 0
5031 444 1 4.1499999999999998e-01 4.6789378763319620e+00 7.7283481710277941e+00 2.5658525873728916e+01 -1 -1 0
2797 444 2 -8.2999999999999996e-01 7.1067972270239563e+00 7.5886840650197911e+00 3.2955943061584186e+01 -3 -5 0
3346 444 2 -8.2999999999999996e-01 3.4518636443034256e+00 4.2070394492206892e-01 3.6217443821292868e+01 0 5 0
5319 444 1 4.1499999999999998e-01 4.2118201996629896e+00 3.9662892573621820e+00 3.4279678407565655e+01 -1 0 0
6067 444 2 -8.2999999999999996e-01 3.1514973979541674e+00 7.2427309086757621e+00 3.5763873079236653e+01 -4 -5 0
5693 444 1 4.1499999999999998e-01 7.3696315207585217e+00 2.1287309651152828e+00 3.5315050364449633e+01 3 0 0
1416 444 1 4.1499999999999998e-01 4.3167391823028458e+00 1.3689553194525661e-01 3.3069900033359389e+01 -2 5 0
998 444 1 4.1499999999999998e-01 1.9001944887519697e+00 8.1352431370344003e-01 3.2679258617959476e+01 2 -1 0
3347 444 1 4.1499999999999998e-01 2.5094233278001479e+00 4.6678720413378832e-01 3.6056461989644497e+01 0 5 0
878 444 1 4.1499999999999998e-01 9.7979084929817084e+00 3.8437252038387006e+00 3.4632173156740429e+01 4 6 0
3957 444 1 4.1499999999999998e-01 9.4839834544926980e+00 5.9350587806926614e+00 3.4718999127488360e+01 0 4 0
4631 444 1 4.1499999999999998e-01 1.0625474918050744e+01 7.3094483913335395e-01 3.4816391255444913e+01 0 -2 0
5244 444 1 4.1499999999999998e-01 5.7969424321180938e+00 7.3046608388607059e-01 3.4454620863425816e+01 -1 -3 0
4974 444 1 4.1499999999999998e-01 5.6285359248135303e-01 4.2043602005157084e+00 3.3719416342941400e+01 1 6 0
4973 444 1 4.1499999999999998e-01 1.7526891500426096e+00 4.1383482012172745e+00 3.4653134245327529e+01 1 6 0