LAMMPS data file via write_data, version 11 Aug 2017, timestep = 500000

7512 atoms
7 atom types
4400 bonds
5 bond types
2650 angles
3 angle types
750 dihedrals
2 dihedral types

0.0000000000000000e+00 4.5679949999999998e+01 xlo xhi
0.0000000000000000e+00 4.6885919999999999e+01 ylo yhi
0.0000000000000000e+00 6.5000000000000000e+01 zlo zhi

Masses

1 1.0079
2 15.9994
3 22.9898
4 15.9994
5 12.011
6 1.0079
7 107.868

Angle Coeffs # harmonic

1 50 109.471
2 50 104.51
3 55 104.52

Dihedral Coeffs # charmm

1 0.111111 3 0 0
2 0.333333 3 0 0

Atoms # full

6361 444 7 0.0000000000000000e+00 1.6907200000000000e+00 0.0000000000000000e+00 0.0000000000000000e+00 0 0 0
6362 444 7 0.0000000000000000e+00 4.2285000000000004e+00 1.4651900000000000e+00 0.0000000000000000e+00 0 0 0
6363 444 7 -3.4720000000000001e-02 1.6907700000000001e+00 0.0000000000000000e+00 7.1781499999999996e+00 0 0 0
6364 444 7 -3.4720000000000001e-02 4.2285500000000003e+00 1.4651900000000000e+00 7.1781499999999996e+00 0 0 0
6365 444 7 0.0000000000000000e+00 2.5366499999999998e+00 1.4651900000000000e+00 2.3926400000000001e+00 0 0 0
6366 444 7 0.0000000000000000e+00 5.0744199999999999e+00 0.0000000000000000e+00 2.3926400000000001e+00 0 0 0
6367 444 7 0.0000000000000000e+00 8.4509000000000001e-01 1.4651900000000000e+00 4.7824200000000001e+00 0 0 0
6368 444 7 0.0000000000000000e+00 3.3828600000000000e+00 0.0000000000000000e+00 4.7824499999999999e+00 0 0 0
6369 444 7 0.0000000000000000e+00 1.6907200000000000e+00 2.9303699999999999e+00 0.0000000000000000e+00 0 0 0
6370 444 7 0.0000000000000000e+00 4.2285000000000004e+00 4.3955599999999997e+00 0.0000000000000000e+00 0 0 0
6371 444 7 -3.4720000000000001e-02 1.6907700000000001e+00 2.9303699999999999e+00 7.1781899999999998e+00 0 0 0
6372 444 7 -3.4720000000000001e-02 4.2285500000000003e+00 4.3955599999999997e+00 7.1781600000000001e+00 0 0 0
6373 444 7 0.0000000000000000e+00 2.5366499999999998e+00 4.3955599999999997e+00 2.3926400000000001e+00 0 0 0
6374 444 7 0.0000000000000000e+00 5.0744199999999999e+00 2.9303699999999999e+00 2.3926400000000001e+00 0 0 0
6375 444 7 0.0000000000000000e+00 8.4509000000000001e-01 4.3955599999999997e+00 4.7824499999999999e+00 0 0 0
6376 444 7 0.0000000000000000e+00 3.3828700000000000e+00 2.9303699999999999e+00 4.7824400000000002e+00 0 0 0
1488 444 1 4.1499999999999998e-01 3.5426749360883627e+00 3.8609680993153015e+00 1.3068316595147383e+01 2 0 0
1487 444 1 4.1499999999999998e-01 3.4896298103466132e+00 3.2039723158468885e+00 1.1705438014437147e+01 2 0 0
1486 444 2 -8.2999999999999996e-01 4.1016114323503192e+00 3.5157840379826846e+00 1.2372134231734677e+01 2 0 0
3547 444 2 -8.2999999999999996e-01 4.7639709300392257e+00 1.7616692900318036e+00 1.5474800357893022e+01 0 2 0
3549 444 1 4.1499999999999998e-01 3.8459584000113796e+00 1.5636414261198495e+00 1.5659922453953717e+01 0 2 0
3548 444 1 4.1499999999999998e-01 5.2044001903464157e+00 9.1252846705722201e-01 1.5509644535560584e+01 0 2 0
6183 444 1 4.1499999999999998e-01 1.6103555241408656e+00 5.2106115082829447e+00 1.3508898587446048e+01 5 3 0
5601 444 1 4.1499999999999998e-01 3.3257263262300152e-01 4.9308971954581233e+00 1.0734094334539115e+01 0 4 0
6181 444 2 -8.2999999999999996e-01 2.0168059743989999e+00 4.3613584268653405e+00 1.3681525053782591e+01 5 3 0
6182 444 1 4.1499999999999998e-01 1.3632598853069260e+00 3.7209527365284587e+00 1.3400473230055747e+01 5 3 0
3311 444 1 4.1499999999999998e-01 4.7858408901991600e+00 6.1520231625027388e-01 9.4201989529791224e+00 -1 0 0
2355 444 1 4.1499999999999998e-01 5.2383371515998904e+00 2.2053923242504454e+00 1.1494422914019092e+01 4 1 0
2934 444 1 4.1499999999999998e-01 1.4883142835332461e+00 2.1825156706452358e+00 1.5388359116503121e+01 5 4 0
3558 444 1 4.1499999999999998e-01 1.8487253361715481e+00 1.5822974924449171e+00 1.1228198007520794e+01 3 -3 0
932 444 1 4.1499999999999998e-01 2.7754675636063437e+00 5.6121053248512061e+00 1.0732088971102351e+01 0 -3 0
2932 444 2 -8.2999999999999996e-01 2.1167728777060044e+00 1.7626806247029154e+00 1.5975735130095886e+01 5 4 0
933 444 1 4.1499999999999998e-01 4.1367129695051368e+00 5.2362905446598402e+00 1.1277679846799618e+01 0 -3 0
6175 444 2 -8.2999999999999996e-01 8.7992271528690458e-01 4.7039064623358456e-01 1.1875268254271345e+01 -6 3 0
5600 444 1 4.1499999999999998e-01 1.4898789991587600e+00 3.9739874303819702e+00 1.0542101007397953e+01 0 4 0
5599 444 2 -8.2999999999999996e-01 1.2764829539218288e+00 4.9064435783920528e+00 1.0577033200832988e+01 0 4 0
3556 444 2 -8.2999999999999996e-01 2.3002983181617762e+00 2.2697448880966618e+00 1.0738575786522343e+01 3 -3 0
3557 444 1 4.1499999999999998e-01 2.2020163919435922e+00 2.0150325649332084e+00 9.8211368151745670e+00 3 -3 0
6176 444 1 4.1499999999999998e-01 5.4720435814056811e-01 1.0909814646458886e+00 1.2523648859632127e+01 -6 3 0
1081 444 2 -8.2999999999999996e-01 3.2051530629500768e+00 4.2141402873264298e+00 1.7095606919485284e+01 7 -3 0
1083 444 1 4.1499999999999998e-01 2.7413491375631414e+00 4.9660239459104689e+00 1.6727110945823519e+01 7 -3 0
2748 444 1 4.1499999999999998e-01 4.6198350027857034e+00 5.4912101527412132e+00 2.1770789941187264e+01 3 -1 0
2702 444 1 4.1499999999999998e-01 1.2773619074735720e+00 1.2035076016034095e-01 1.7394089277153043e+01 0 -1 0
6197 444 1 4.1499999999999998e-01 5.6967373654635614e+00 5.1613488435141104e+00 2.0082400653728438e+01 -5 3 0
1082 444 1 4.1499999999999998e-01 4.1315251593706330e+00 4.4428174511719476e+00 1.7019620195281654e+01 7 -3 0
2933 444 1 4.1499999999999998e-01 2.4586286012275380e+00 2.4778821250244487e+00 1.6512256043812588e+01 5 4 0
5458 444 2 -8.2999999999999996e-01 3.8134464275930124e+00 2.5517355665002102e+00 1.9020556848345318e+01 -1 -2 0
5459 444 1 4.1499999999999998e-01 3.5563074258261747e+00 3.2429257461627605e+00 1.8410337520653965e+01 -1 -2 0
5460 444 1 4.1499999999999998e-01 4.4872710308955837e+00 2.9539558447255718e+00 1.9568654622309353e+01 -1 -2 0
3407 444 1 4.1499999999999998e-01 1.9063443475456907e+00 1.9961557092538886e+00 2.0095691458992178e+01 -3 3 0
1265 444 1 4.1499999999999998e-01 4.4293910819317217e+00 7.2844734214038753e-01 1.8973807786253360e+01 3 -2 0
3406 444 2 -8.2999999999999996e-01 1.5875341352741712e+00 1.7232044583957602e+00 2.0955976043080391e+01 -3 3 0
3408 444 1 4.1499999999999998e-01 1.7962868163467318e+00 2.4575643706442900e+00 2.1533357862618843e+01 -3 3 0
5213 444 1 4.1499999999999998e-01 3.0632611290184588e+00 4.2152684300193046e+00 2.2838639325908744e+01 0 2 0
5212 444 2 -8.2999999999999996e-01 2.4006843484772333e+00 3.8398110130513272e+00 2.2258763607586417e+01 0 2 0
5214 444 1 4.1499999999999998e-01 2.0731724134522929e+00 4.5846374828984784e+00 2.1754578867368686e+01 0 2 0
34 444 6 2.9999999999999999e-02 7.8215645718714133e-01 3.5319968451096178e+00 2.4106552134129739e+01 0 1 0
4402 444 2 -8.2999999999999996e-01 4.9454126987678064e+00 4.3897413625134796e+00 2.3247806205276934e+01 1 2 0
3253 444 2 -8.2999999999999996e-01 1.4406047129712818e+00 5.7369405876868980e+00 2.0537761438414385e+01 -2 -2 0
4403 444 1 4.1499999999999998e-01 4.9885887242098885e+00 4.9856297886510612e+00 2.3995660110086831e+01 1 2 0
4126 444 2 -8.2999999999999996e-01 5.4811129614227374e+00 4.4749218188670142e-01 2.8039650568515029e+01 2 5 0
2804 444 1 4.1499999999999998e-01 1.7876414583824138e+00 2.4976111589900709e+00 3.2465577086855014e+01 4 -1 0
4268 444 1 4.1499999999999998e-01 4.4582503625860515e+00 3.0473643847151473e+00 2.9387593247773381e+01 -2 -3 0
2610 444 1 4.1499999999999998e-01 5.0399441751338356e+00 3.3061384469299768e+00 3.2214040366190311e+01 2 3 0
30 444 6 2.9999999999999999e-02 2.6299496256073318e-01 2.0124439967352785e+00 2.6324777215676061e+01 0 1 0
31 444 6 2.9999999999999999e-02 1.9999894286944395e-01 1.1083623459202099e+00 2.4739047051696403e+01 0 1 0
5830 444 2 -8.2999999999999996e-01 5.2676136723381557e+00 4.9357959240630711e+00 3.0879126781659703e+01 0 0 0
3389 444 1 4.1499999999999998e-01 2.9288561858008353e+00 6.2135036422485856e-01 3.1807059911438358e+01 -4 3 0
4128 444 1 4.1499999999999998e-01 5.2018057976219261e+00 1.3558383337237494e+00 2.8154222216803912e+01 2 5 0
5831 444 1 4.1499999999999998e-01 4.4146720052188426e+00 5.1529314402916873e+00 3.1255392151807996e+01 0 0 0
1517 444 1 4.1499999999999998e-01 2.4620100082773417e+00 2.0979842947397526e-01 2.8013571290471482e+01 3 3 0
3660 444 1 4.1499999999999998e-01 2.2085227219947883e+00 1.6938480332096224e+00 2.9658185877349236e+01 -2 5 0
4267 444 2 -8.2999999999999996e-01 4.5271340738128556e+00 2.9728720741095986e+00 2.8435785452253743e+01 -2 -3 0
3390 444 1 4.1499999999999998e-01 3.8315450231320991e+00 1.8313894147410197e+00 3.1920433823431317e+01 -4 3 0
3388 444 2 -8.2999999999999996e-01 3.0442618114294047e+00 1.5130515170786303e+00 3.1478757465735026e+01 -4 3 0
3658 444 2 -8.2999999999999996e-01 1.8947268943062390e+00 1.9660568538615637e+00 2.8795824449242740e+01 -2 5 0
5832 444 1 4.1499999999999998e-01 5.4798606576287003e+00 5.6823573688127569e+00 3.0318921541163089e+01 0 0 0
35 444 6 2.9999999999999999e-02 5.3562602075586241e-01 4.1500933661594237e+00 2.5677475457135628e+01 0 1 0
5912 444 1 4.1499999999999998e-01 2.3123215954813373e-01 2.7931730843125098e+00 2.8319920218218126e+01 3 2 0
3659 444 1 4.1499999999999998e-01 2.6797910785957999e+00 2.2684027237622542e+00 2.8339213298965944e+01 -2 5 0
4269 444 1 4.1499999999999998e-01 4.7762955488449705e+00 3.8497534611925937e+00 2.8143843096866004e+01 -2 -3 0
5856 444 1 4.1499999999999998e-01 3.0403660234000482e+00 4.6214664907442087e+00 3.3191675574207586e+01 -4 0 0
1190 444 1 4.1499999999999998e-01 3.3635731136146281e+00 3.5778333465873924e-01 3.6573896517647235e+01 1 3 0
1191 444 1 4.1499999999999998e-01 2.2168924243892754e+00 6.1022660240651716e-01 3.7529559242417008e+01 1 3 0
575 444 1 4.1499999999999998e-01 2.2332005468817138e+00 5.6017863799276810e+00 3.5200639828277012e+01 -5 -3 0
5854 444 2 -8.2999999999999996e-01 3.3064810174346757e+00 5.3026035032944145e+00 3.2574045209869162e+01 -4 0 0
1107 444 1 4.1499999999999998e-01 3.7037040124238557e-01 1.0637019910062941e+00 3.7738916966922126e+01 4 1 0
1189 444 2 -8.2999999999999996e-01 2.9268161976782983e+00 1.0535868802448802e+00 3.7065154045396206e+01 1 3 0
2227 444 2 -8.2999999999999996e-01 3.9574800544151629e+00 3.3598738905206984e+00 3.6343846053520956e+01 3 0 0
2805 444 1 4.1499999999999998e-01 1.1422600195204033e+00 3.3551399335038998e+00 3.3533295666696752e+01 4 -1 0
3762 444 1 4.1499999999999998e-01 5.6705247987480023e-01 1.0272331050271744e+00 3.3056602411108116e+01 1 4 0
2803 444 2 -8.2999999999999996e-01 9.5896255724846213e-01 2.6411784252326540e+00 3.2922646077002646e+01 4 -1 0
576 444 1 4.1499999999999998e-01 2.5665572990537875e+00 4.1714008289582036e+00 3.5567744442939137e+01 -5 -3 0
1106 444 1 4.1499999999999998e-01 1.3444607832638891e+00 2.1466767616224116e+00 3.8151481614580867e+01 4 1 0
2608 444 2 -8.2999999999999996e-01 5.1981489195149786e+00 2.6127396805230392e+00 3.2854666529055557e+01 2 3 0
574 444 2 -8.2999999999999996e-01 1.8961887668599939e+00 4.7076473966066503e+00 3.5144332681393067e+01 -5 -3 0
2229 444 1 4.1499999999999998e-01 3.7050326476885931e+00 2.5249549944670613e+00 3.6738072118353386e+01 3 0 0
1481 444 1 4.1499999999999998e-01 8.4871374577992251e-02 4.9021351888490949e+00 3.5274187384888045e+01 1 -2 0
1105 444 2 -8.2999999999999996e-01 4.3801595502233581e-01 1.8607129490078862e+00 3.8264683092718698e+01 4 1 0
3760 444 2 -8.2999999999999996e-01 2.4441492114665797e-01 2.6480241212448868e-01 3.3537057909923526e+01 1 4 0
2228 444 1 4.1499999999999998e-01 4.5718314763779677e+00 3.7444630107347505e+00 3.6969062911828672e+01 3 0 0
6377 444 7 0.0000000000000000e+00 1.6907200000000000e+00 5.8607399999999998e+00 0.0000000000000000e+00 0 0 0
6378 444 7 0.0000000000000000e+00 4.2285000000000004e+00 7.3259299999999996e+00 0.0000000000000000e+00 0 0 0
6379 444 7 -3.4720000000000001e-02 1.6907700000000001e+00 5.8607399999999998e+00 7.1781499999999996e+00 0 0 0
6380 444 7 -3.4720000000000001e-02 4.2285500000000003e+00 7.3259299999999996e+00 7.1781499999999996e+00 0 0 0
6381 444 7 0.0000000000000000e+00 2.5366499999999998e+00 7.3259299999999996e+00 2.3926400000000001e+00 0 0 0
6382 444 7 0.0000000000000000e+00 5.0744199999999999e+00 5.8607399999999998e+00 2.3926400000000001e+00 0 0 0
6383 444 7 0.0000000000000000e+00 8.4509000000000001e-01 7.3259299999999996e+00 4.7824200000000001e+00 0 0 0
6384 444 7 0.0000000000000000e+00 3.3828600000000000e+00 5.8607399999999998e+00 4.7824499999999999e+00 0 0 0
6385 444 7 0.0000000000000000e+00 1.6907200000000000e+00 8.7911099999999998e+00 0.0000000000000000e+00 0 0 0
6386 444 7 0.0000000000000000e+00 4.2285000000000004e+00 1.0256300000000000e+01 0.0000000000000000e+00 0 0 0
6387 444 7 -3.4720000000000001e-02 1.6907700000000001e+00 8.7911099999999998e+00 7.1781899999999998e+00 0 0 0
6388 444 7 -3.4720000000000001e-02 4.2285500000000003e+00 1.0256300000000000e+01 7.1781600000000001e+00 0 0 0
6389 444 7 0.0000000000000000e+00 2.5366499999999998e+00 1.0256300000000000e+01 2.3926400000000001e+00 0 0 0
6390 444 7 0.0000000000000000e+00 5.0744199999999999e+00 8.7911099999999998e+00 2.3926400000000001e+00 0 0 0
6391 444 7 0.0000000000000000e+00 8.4509000000000001e-01 1.0256300000000000e+01 4.7824499999999999e+00 0 0 0
6392 444 7 0.0000000000000000e+00 3.3828700000000000e+00 8.7911099999999998e+00 4.7824400000000002e+00 0 0 0
931 444 2 -8.2999999999999996e-01 3.6912455539843276e+00 5.8905456941495284e+00 1.0739404020257785e+01 0 -3 0
4293 444 1 4.1499999999999998e-01 3.1389953183510708e+00 7.3463444887208009e+00 1.1663856073728354e+01 3 0 0
4291 444 2 -8.2999999999999996e-01 3.0991085708112913e+00 8.1749525237290843e+00 1.2141401507003483e+01 3 0 0
4292 444 1 4.1499999999999998e-01 3.0822637972676605e+00 8.8451340756702912e+00 1.1458170328244252e+01 3 0 0
5309 444 1 4.1499999999999998e-01 3.2673119744812840e+00 1.0804006123711956e+01 1.0525422315118430e+01 -4 0 0
912 444 1 4.1499999999999998e-01 5.3412785372502212e+00 6.9028314588734254e+00 1.0740125835332217e+01 6 3 0
1570 444 2 -8.2999999999999996e-01 4.9316280933666139e+00 8.9175674733768719e+00 1.4155121056433822e+01 -3 -2 0
5349 444 1 4.1499999999999998e-01 5.4403686533428763e-01 9.3861393802465933e+00 1.5939677309007712e+01 -2 3 0
454 444 2 -8.2999999999999996e-01 8.6605145343768197e-01 6.9187475083253007e+00 1.3586416760401280e+01 0 2 0
1572 444 1 4.1499999999999998e-01 4.3538859657184688e+00 8.5964936980116136e+00 1.3462763804210297e+01 -3 -2 0
1571 444 1 4.1499999999999998e-01 4.3382172458137775e+00 9.2008948171854996e+00 1.4850693710952729e+01 -3 -2 0
1832 444 1 4.1499999999999998e-01 1.0550837896297978e+00 6.2478850999714037e+00 1.5407430756494133e+01 3 1 0
455 444 1 4.1499999999999998e-01 1.1244345182251747e+00 7.5436721350770828e+00 1.2908965982899430e+01 0 2 0
5308 444 2 -8.2999999999999996e-01 2.6387832441660857e+00 1.0119038512556671e+01 1.0297377422465212e+01 -4 0 0
2284 444 2 -8.2999999999999996e-01 3.4483636003819251e-01 7.4705921603361309e+00 1.0244736311216100e+01 -1 1 0
2285 444 1 4.1499999999999998e-01 9.1263909937807808e-01 6.7197106856553619e+00 1.0071504289626887e+01 -1 1 0
5310 444 1 4.1499999999999998e-01 2.2144547066207001e+00 1.0438194113188972e+01 9.5009372669235574e+00 -4 0 0
2286 444 1 4.1499999999999998e-01 3.8520778800718497e-01 7.9920053136397984e+00 9.4430316164331245e+00 -1 1 0
1477 444 2 -8.2999999999999996e-01 4.9128070946988539e-01 1.1476486570739263e+01 1.4467722827388114e+01 5 0 0
1838 444 1 4.1499999999999998e-01 5.6281545803654582e+00 1.1138891016942326e+01 2.3797270606289565e+01 -1 5 0
5962 444 2 -8.2999999999999996e-01 4.5961389414813230e+00 1.0128246610685927e+01 2.2939110836645327e+01 5 2 0
2485 444 2 -8.2999999999999996e-01 5.5447887699479477e+00 8.9235946828892825e+00 1.8544417223353619e+01 -3 -4 0
5347 444 2 -8.2999999999999996e-01 5.5585341414589295e-01 8.7581176526800082e+00 1.6661952544858536e+01 -2 3 0
3254 444 1 4.1499999999999998e-01 2.0432535042227720e+00 6.0368281396060537e+00 1.9857236553237634e+01 -2 -2 0
440 444 1 4.1499999999999998e-01 2.2336570512812592e+00 6.7019219727454997e+00 2.2852641717022632e+01 0 0 0
2217 444 1 4.1499999999999998e-01 1.4007875279016573e+00 9.3138456692373257e+00 1.8548886855275640e+01 5 2 0
1833 444 1 4.1499999999999998e-01 1.0407856993634903e+00 6.8186350279553070e+00 1.6809549013785144e+01 3 1 0
2747 444 1 4.1499999999999998e-01 4.8685092845401439e+00 6.9770021821001400e+00 2.1920718343616297e+01 3 -1 0
1831 444 2 -8.2999999999999996e-01 1.1424847324595269e+00 5.9980630815802138e+00 1.6327312843907787e+01 3 1 0
5432 444 1 4.1499999999999998e-01 4.2343972746636034e+00 8.0430337971704322e+00 1.8895241794166985e+01 -3 5 0
2746 444 2 -8.2999999999999996e-01 4.6957573275146682e+00 6.3007423383656302e+00 2.1265690619314011e+01 3 -1 0
5964 444 1 4.1499999999999998e-01 3.6744154652030661e+00 9.8701327285381186e+00 2.2933196089099880e+01 5 2 0
1294 444 2 -8.2999999999999996e-01 2.1870465710287279e+00 9.4362501601713511e+00 2.3650638352402638e+01 -1 -3 0
5433 444 1 4.1499999999999998e-01 3.9821872280925166e+00 6.9884435887270655e+00 1.9951709874133666e+01 -3 5 0
2215 444 2 -8.2999999999999996e-01 1.7998226575263410e+00 9.4584819750439113e+00 1.9406839792619721e+01 5 2 0
3438 444 1 4.1499999999999998e-01 1.0946025574863849e+00 9.0044023709176244e+00 2.0891263883208655e+01 4 1 0
3436 444 2 -8.2999999999999996e-01 6.6500874469554094e-01 8.9963968964117509e+00 2.1746609971537350e+01 4 1 0
1296 444 1 4.1499999999999998e-01 1.4639993059403380e+00 9.2170643924055895e+00 2.3062937627047564e+01 -1 -3 0
2216 444 1 4.1499999999999998e-01 2.5281312276093000e+00 8.8382629404693933e+00 1.9440409532535373e+01 5 2 0
5431 444 2 -8.2999999999999996e-01 3.5339164174440079e+00 7.5399153086051669e+00 1.9310489043350756e+01 -3 5 0
3681 444 1 4.1499999999999998e-01 3.0320964581430068e+00 8.8222238658064338e+00 1.6990252153926214e+01 4 -4 0
3679 444 2 -8.2999999999999996e-01 3.7432977402163452e+00 9.4508278423102503e+00 1.6866633038859757e+01 4 -4 0
3680 444 1 4.1499999999999998e-01 4.3967431437757982e+00 9.2057950936409849e+00 1.7521767610722065e+01 4 -4 0
441 444 1 4.1499999999999998e-01 2.7738227008185419e+00 7.7059993325950966e+00 2.3848606205728483e+01 0 0 0
5963 444 1 4.1499999999999998e-01 5.0768137928110368e+00 9.3010429472349436e+00 2.2969403720051993e+01 5 2 0
4310 444 1 4.1499999999999998e-01 2.7487159654054936e+00 1.0706177328199013e+01 1.9755857665217288e+01 -2 0 0
439 444 2 -8.2999999999999996e-01 2.5753729926976017e+00 6.7754869999518759e+00 2.3743736939498095e+01 0 0 0
4309 444 2 -8.2999999999999996e-01 3.2067006530601487e+00 1.1515088260332115e+01 1.9984210485478812e+01 -2 0 0
3255 444 1 4.1499999999999998e-01 5.7939673019751214e-01 6.0332798976460289e+00 2.0243250168580300e+01 -2 -2 0
2834 444 1 4.1499999999999998e-01 1.7172958113901220e+00 7.4221380349997341e+00 3.0413629246202021e+01 -1 1 0
5730 444 1 4.1499999999999998e-01 1.8300601377189303e+00 6.9067454244334190e+00 2.7121014281555571e+01 1 -1 0
2987 444 1 4.1499999999999998e-01 1.5472053186939976e+00 1.1356415134814490e+01 3.0686529834265222e+01 2 -3 0
6081 444 1 4.1499999999999998e-01 4.0099701851206424e+00 1.0851348678009330e+01 2.9298696961297527e+01 -2 -3 0
3400 444 2 -8.2999999999999996e-01 5.4140930873564601e+00 1.0881138642086560e+01 3.2029752479137755e+01 -2 -4 0
6134 444 1 4.1499999999999998e-01 2.8546166825472508e+00 6.0862078608803580e+00 2.5313037090204347e+01 -2 -2 0
977 444 1 4.1499999999999998e-01 4.5543344156413923e-02 6.8043468582749824e+00 3.2200670871387835e+01 1 -2 0
1687 444 2 -8.2999999999999996e-01 5.7020327375717494e+00 7.6114468808281543e+00 3.0141092862288797e+01 2 3 0
4996 444 2 -8.2999999999999996e-01 3.0618751578339238e+00 8.2066096822708356e+00 2.9639677766048443e+01 0 3 0
2840 444 1 4.1499999999999998e-01 1.3401132363563295e+00 1.0524041997954168e+01 2.7001811070591522e+01 3 2 0
2833 444 2 -8.2999999999999996e-01 1.2500773586216762e+00 7.4067166692678761e+00 3.1248914217568782e+01 -1 1 0
4997 444 1 4.1499999999999998e-01 3.9581071991335794e+00 7.8872881241236001e+00 2.9744726245462278e+01 0 3 0
4998 444 1 4.1499999999999998e-01 3.0764727961923257e+00 9.0889497306982285e+00 3.0010482069724805e+01 0 3 0
5729 444 1 4.1499999999999998e-01 1.8143367196128000e+00 7.8024873017628131e+00 2.8341380825343020e+01 1 -1 0
1295 444 1 4.1499999999999998e-01 1.7679434157428979e+00 9.8628598283772320e+00 2.4398026189419177e+01 -1 -3 0
4871 444 1 4.1499999999999998e-01 5.5697106735407393e+00 1.0065623889726467e+01 2.7828018423136641e+01 2 4 0
6332 444 1 4.1499999999999998e-01 3.7581898110031591e+00 1.0437440967733055e+01 2.6622311641342630e+01 -4 1 0
6331 444 2 -8.2999999999999996e-01 4.5408176514702161e+00 1.0976803984113387e+01 2.6735506984697079e+01 -4 1 0
6133 444 2 -8.2999999999999996e-01 3.3919198409606377e+00 6.1207270102536357e+00 2.6104457218895387e+01 -2 -2 0
5728 444 2 -8.2999999999999996e-01 1.3219223281611650e+00 7.5973250881837702e+00 2.7546605127298793e+01 1 -1 0
6079 444 2 -8.2999999999999996e-01 3.4497663471754447e+00 1.0876973521603118e+01 3.0074420437927557e+01 -2 -3 0
2841 444 1 4.1499999999999998e-01 1.7549222930661132e+00 9.0869850588516456e+00 2.6767938488000954e+01 3 2 0
2839 444 2 -8.2999999999999996e-01 1.9605946817240363e+00 9.9856787884561573e+00 2.6510486343142937e+01 3 2 0
6080 444 1 4.1499999999999998e-01 4.0579834577947427e+00 1.0822993208113775e+01 3.0811570397876238e+01 -2 -3 0
2835 444 1 4.1499999999999998e-01 1.7897095609883729e+00 7.9366958220284083e+00 3.1835558144044633e+01 -1 1 0
2986 444 2 -8.2999999999999996e-01 7.3327046068323742e-01 1.1570233309871401e+01 3.1142626539867020e+01 2 -3 0
6135 444 1 4.1499999999999998e-01 4.2759956103437400e+00 6.3039099873591757e+00 2.5786517027826473e+01 -2 -2 0
3401 444 1 4.1499999999999998e-01 5.4000067770171043e+00 1.0837329740273432e+01 3.2985846458504597e+01 -2 -4 0
4452 444 1 4.1499999999999998e-01 3.7076541809226424e+00 8.6047059070091088e+00 3.2556193169941956e+01 2 -2 0
4663 444 2 -8.2999999999999996e-01 5.0182524987583639e+00 1.0463985472101502e+01 3.4599590245110072e+01 0 2 0
4450 444 2 -8.2999999999999996e-01 2.8439429689008633e+00 9.0162154639118786e+00 3.2586114180507629e+01 2 -2 0
3172 444 2 -8.2999999999999996e-01 2.3572804403647880e+00 7.3003508191060780e+00 3.5259702903928243e+01 -2 -1 0
2640 444 1 4.1499999999999998e-01 3.5717629978326277e+00 1.1548476516326255e+01 3.4179198697371781e+01 1 4 0
4665 444 1 4.1499999999999998e-01 5.1326787984604021e+00 9.5215285208506177e+00 3.4721711986797629e+01 0 2 0
420 444 1 4.1499999999999998e-01 4.9605989137204398e+00 6.7985397333515758e+00 3.3114724412529206e+01 -1 6 0
1640 444 1 4.1499999999999998e-01 1.5474065219187141e+00 1.0508110371614222e+01 3.4665515900452633e+01 1 -4 0
1641 444 1 4.1499999999999998e-01 3.2839239434297041e-01 1.0783175213532916e+01 3.5520056284318116e+01 1 -4 0
3174 444 1 4.1499999999999998e-01 3.1528816361722547e+00 7.7636754332081948e+00 3.4997822601113171e+01 -2 -1 0
418 444 2 -8.2999999999999996e-01 5.2026353123362172e+00 7.7064661978451685e+00 3.3297262004635769e+01 -1 6 0
3173 444 1 4.1499999999999998e-01 1.6894230293295371e+00 7.9836752717710855e+00 3.5316859094295872e+01 -2 -1 0
1639 444 2 -8.2999999999999996e-01 9.1418891763299548e-01 1.0079375274626312e+01 3.5241236679075811e+01 1 -4 0
4451 444 1 4.1499999999999998e-01 3.0222924521620547e+00 9.9539539698598016e+00 3.2514910203949519e+01 2 -2 0
4664 444 1 4.1499999999999998e-01 5.6503762458001612e+00 1.0862028069382504e+01 3.5198100090103424e+01 0 2 0
5855 444 1 4.1499999999999998e-01 2.6092658396065818e+00 5.9566140194101749e+00 3.2622967367795610e+01 -4 0 0
6393 444 7 0.0000000000000000e+00 1.6907200000000000e+00 1.1721480000000000e+01 0.0000000000000000e+00 0 0 0
6394 444 7 0.0000000000000000e+00 4.2285000000000004e+00 1.3186669999999999e+01 0.0000000000000000e+00 0 0 0
6395 444 7 -3.4720000000000001e-02 1.6907700000000001e+00 1.1721480000000000e+01 7.1781499999999996e+00 0 0 0
6396 444 7 -3.4720000000000001e-02 4.2285500000000003e+00 1.3186669999999999e+01 7.1781499999999996e+00 0 0 0
6397 444 7 0.0000000000000000e+00 2.5366499999999998e+00 1.3186669999999999e+01 2.3926400000000001e+00 0 0 0
6398 444 7 0.0000000000000000e+00 5.0744199999999999e+00 1.1721480000000000e+01 2.3926400000000001e+00 0 0 0
6399 444 7 0.0000000000000000e+00 8.4509000000000001e-01 1.3186669999999999e+01 4.7824200000000001e+00 0 0 0
6400 444 7 0.0000000000000000e+00 3.3828600000000000e+00 1.1721480000000000e+01 4.7824499999999999e+00 0 0 0
6401 444 7 0.0000000000000000e+00 1.6907200000000000e+00 1.4651850000000000e+01 0.0000000000000000e+00 0 0 0
6403 444 7 -3.4720000000000001e-02 1.6907700000000001e+00 1.4651850000000000e+01 7.1781899999999998e+00 0 0 0
6406 444 7 0.0000000000000000e+00 5.0744199999999999e+00 1.4651850000000000e+01 2.3926400000000001e+00 0 0 0
6408 444 7 0.0000000000000000e+00 3.3828700000000000e+00 1.4651850000000000e+01 4.7824400000000002e+00 0 0 0
6402 444 7 0.0000000000000000e+00 4.2285000000000004e+00 1.6117039999999999e+01 0.0000000000000000e+00 0 0 0
6404 444 7 -3.4720000000000001e-02 4.2285500000000003e+00 1.6117039999999999e+01 7.1781600000000001e+00 0 0 0
6405 444 7 0.0000000000000000e+00 2.5366499999999998e+00 1.6117039999999999e+01 2.3926400000000001e+00 0 0 0
6407 444 7 0.0000000000000000e+00 8.4509000000000001e-01 1.6117039999999999e+01 4.7824499999999999e+00 0 0 0
6223 444 2 -8.2999999999999996e-01 2.7957801273165361e-01 1.6481163895626118e+01 1.5099084086291452e+01 1 0 0
6225 444 1 4.1499999999999998e-01 1.1231941489184800e+00 1.6033892916318838e+01 1.5032052955617598e+01 1 0 0
4363 444 2 -8.2999999999999996e-01 3.6109468564140585e+00 1.4229134492062133e+01 1.0144623337972764e+01 -2 0 0
746 444 1 4.1499999999999998e-01 2.6395204164441610e+00 1.4054910643516052e+01 1.4766919421787552e+01 1 0 0
745 444 2 -8.2999999999999996e-01 2.3376854250376762e+00 1.4685003582609511e+01 1.5421221270633254e+01 1 0 0
1559 444 1 4.1499999999999998e-01 1.6142527660646713e+00 1.4639688434419122e+01 1.0635874729092306e+01 3 -1 0
4364 444 1 4.1499999999999998e-01 4.5472503532417239e+00 1.4090289906942674e+01 1.0002180605231009e+01 -2 0 0
1554 444 1 4.1499999999999998e-01 3.3299129275674431e+00 1.6069217005381184e+01 1.5701159834868630e+01 2 -2 0
4365 444 1 4.1499999999999998e-01 3.4023275504153254e+00 1.5007206304858066e+01 9.6275990542068417e+00 -2 0 0
1646 444 1 4.1499999999999998e-01 3.8048581155023471e+00 1.2494212032436076e+01 1.0978548539835293e+01 0 -1 0
4193 444 1 4.1499999999999998e-01 5.5070976178420334e+00 1.7316982612474582e+01 1.2378711229928166e+01 -1 5 0
1478 444 1 4.1499999999999998e-01 1.2450088420973113e+00 1.1774033485289429e+01 1.3958221188097319e+01 5 0 0
4192 444 2 -8.2999999999999996e-01 4.9843541808653411e+00 1.6915070065878155e+01 1.3072568436704030e+01 -1 5 0
1560 444 1 4.1499999999999998e-01 1.3915378687417396e-01 1.4357062938358652e+01 1.0825878507926198e+01 3 -1 0
6208 444 2 -8.2999999999999996e-01 3.7033384718347659e+00 1.4245918479874165e+01 1.3111422648722574e+01 -1 -5 0
1558 444 2 -8.2999999999999996e-01 8.3899397082312122e-01 1.4947137841085398e+01 1.1105641387647337e+01 3 -1 0
4913 444 1 4.1499999999999998e-01 5.1554780130493745e+00 1.3548913175183136e+01 1.4272453664971065e+01 -1 2 0
6210 444 1 4.1499999999999998e-01 4.1925833965640082e+00 1.4981021166950455e+01 1.3480876991009268e+01 -1 -5 0
6209 444 1 4.1499999999999998e-01 3.5099034836211569e+00 1.4513688421824833e+01 1.2213026975723588e+01 -1 -5 0
6224 444 1 4.1499999999999998e-01 4.4353027307086718e-01 1.7215276441093831e+01 1.5691056477043519e+01 1 0 0
6120 444 1 4.1499999999999998e-01 3.3318213793433837e-01 1.6783985325794994e+01 1.0245265949675817e+01 -4 -4 0
1645 444 2 -8.2999999999999996e-01 4.3352167290681400e+00 1.1755926262290068e+01 1.1278359542398571e+01 0 -1 0
1552 444 2 -8.2999999999999996e-01 3.7771512475433346e+00 1.6903664468003555e+01 1.5842257117509369e+01 2 -2 0
1647 444 1 4.1499999999999998e-01 5.1454501998990514e+00 1.2155368420443411e+01 1.1594903288145145e+01 0 -1 0
4194 444 1 4.1499999999999998e-01 4.1640420574939503e+00 1.7408343866392904e+01 1.3071351340879337e+01 -1 5 0
3641 444 1 4.1499999999999998e-01 1.0189944730862828e+00 1.2264805949739099e+01 2.2296774835185271e+01 5 3 0
5607 444 1 4.1499999999999998e-01 5.5705396580187259e+00 1.6544714044738296e+01 1.8826872385563846e+01 1 0 0
747 444 1 4.1499999999999998e-01 2.5258255607100937e+00 1.4267075405747606e+01 1.6261561515091952e+01 1 0 0
3642 444 1 4.1499999999999998e-01 2.2522521711574139e+00 1.3101643981470479e+01 2.2562618526633997e+01 5 3 0
5229 444 1 4.1499999999999998e-01 4.1504870432152208e+00 1.1901726964424828e+01 1.6314790904575137e+01 2 0 0
5227 444 2 -8.2999999999999996e-01 3.3765669945767529e+00 1.2396001533524542e+01 1.6584925347213300e+01 2 0 0
3640 444 2 -8.2999999999999996e-01 1.6540288587585141e+00 1.2835711872298676e+01 2.1864305494365411e+01 5 3 0
729 444 1 4.1499999999999998e-01 2.6461328186071797e-01 1.4245641377399117e+01 2.1617934144037822e+01 2 -1 0
728 444 1 4.1499999999999998e-01 1.4926873547019123e-01 1.5739718975733693e+01 2.1402705995264803e+01 2 -1 0
4348 444 2 -8.2999999999999996e-01 3.8194267706614999e+00 1.6415696128329852e+01 1.9168980132377317e+01 3 1 0
4349 444 1 4.1499999999999998e-01 3.6051456131630117e+00 1.5491270425433575e+01 1.9043470488586287e+01 3 1 0
636 444 1 4.1499999999999998e-01 3.0920372527983102e+00 1.5859457061412554e+01 2.1555191177218038e+01 3 -1 0
634 444 2 -8.2999999999999996e-01 2.9367529695789640e+00 1.5749419991797376e+01 2.2493280061219561e+01 3 -1 0
4350 444 1 4.1499999999999998e-01 3.0650100730291339e+00 1.6775753740044888e+01 1.9635290984698486e+01 3 1 0
1215 444 1 4.1499999999999998e-01 3.3824430212436982e+00 1.3430425341765517e+01 1.7964251052833223e+01 -1 2 0
1213 444 2 -8.2999999999999996e-01 3.1532131154169649e+00 1.4061061973794882e+01 1.8646880491050918e+01 -1 2 0
1533 444 1 4.1499999999999998e-01 3.8253890622741156e+00 1.4975609071935507e+01 2.3786065447265102e+01 2 -1 0