LAMMPS data file via write_data, version 11 Aug 2017, timestep = 500000

7728 atoms
7 atom types
4640 bonds
5 bond types
3040 angles
3 angle types
1200 dihedrals
2 dihedral types

0.0000000000000000e+00 4.5679949999999998e+01 xlo xhi
0.0000000000000000e+00 4.6885919999999999e+01 ylo yhi
0.0000000000000000e+00 6.5000000000000000e+01 zlo zhi

Masses

1 1.0079
2 15.9994
3 22.9898
4 15.9994
5 12.011
6 1.0079
7 107.868

Angle Coeffs # harmonic

1 50 109.471
2 50 104.51
3 55 104.52

Dihedral Coeffs # charmm

1 0.111111 3 0 0
2 0.333333 3 0 0

Atoms # full

6577 444 7 0.0000000000000000e+00 1.6907200000000000e+00 0.0000000000000000e+00 0.0000000000000000e+00 0 0 0
6578 444 7 0.0000000000000000e+00 4.2285000000000004e+00 1.4651900000000000e+00 0.0000000000000000e+00 0 0 0
6579 444 7 -5.5559999999999998e-02 1.6907700000000001e+00 0.0000000000000000e+00 7.1781499999999996e+00 0 0 0
6580 444 7 -5.5559999999999998e-02 4.2285500000000003e+00 1.4651900000000000e+00 7.1781499999999996e+00 0 0 0
6581 444 7 0.0000000000000000e+00 2.5366499999999998e+00 1.4651900000000000e+00 2.3926400000000001e+00 0 0 0
6582 444 7 0.0000000000000000e+00 5.0744199999999999e+00 0.0000000000000000e+00 2.3926400000000001e+00 0 0 0
6583 444 7 0.0000000000000000e+00 8.4509000000000001e-01 1.4651900000000000e+00 4.7824200000000001e+00 0 0 0
6584 444 7 0.0000000000000000e+00 3.3828600000000000e+00 0.0000000000000000e+00 4.7824499999999999e+00 0 0 0
6585 444 7 0.0000000000000000e+00 1.6907200000000000e+00 2.9303699999999999e+00 0.0000000000000000e+00 0 0 0
6586 444 7 0.0000000000000000e+00 4.2285000000000004e+00 4.3955599999999997e+00 0.0000000000000000e+00 0 0 0
6587 444 7 -5.5559999999999998e-02 1.6907700000000001e+00 2.9303699999999999e+00 7.1781899999999998e+00 0 0 0
6588 444 7 -5.5559999999999998e-02 4.2285500000000003e+00 4.3955599999999997e+00 7.1781600000000001e+00 0 0 0
6589 444 7 0.0000000000000000e+00 2.5366499999999998e+00 4.3955599999999997e+00 2.3926400000000001e+00 0 0 0
6590 444 7 0.0000000000000000e+00 5.0744199999999999e+00 2.9303699999999999e+00 2.3926400000000001e+00 0 0 0
6591 444 7 0.0000000000000000e+00 8.4509000000000001e-01 4.3955599999999997e+00 4.7824499999999999e+00 0 0 0
6592 444 7 0.0000000000000000e+00 3.3828700000000000e+00 2.9303699999999999e+00 4.7824400000000002e+00 0 0 0
3138 444 1 4.1499999999999998e-01 4.3598323229830642e+00 3.0889020956750790e+00 1.0194400426230757e+01 -5 3 0
3870 444 1 4.1499999999999998e-01 3.7991452956922949e+00 1.9753179863943739e+00 1.3218942418462298e+01 -2 3 0
3322 444 2 -8.2999999999999996e-01 2.6097584054108416e+00 3.9292805702016844e+00 1.0211055315210560e+01 -4 -2 0
3136 444 2 -8.2999999999999996e-01 5.0899579096130294e+00 2.6697036876238753e+00 1.0649835672072687e+01 -5 3 0
2773 444 2 -8.2999999999999996e-01 3.1453910109191119e+00 2.3919569076535163e+00 1.6197118134490371e+01 -1 -2 0
2775 444 1 4.1499999999999998e-01 3.7051595562968869e+00 2.2686713500404880e+00 1.5430506696025565e+01 -1 -2 0
3137 444 1 4.1499999999999998e-01 4.7675963867414692e+00 1.7946137715993988e+00 1.0865549770852384e+01 -5 3 0
3323 444 1 4.1499999999999998e-01 2.2884092219358183e+00 4.8240096791145071e+00 1.0099578427270256e+01 -4 -2 0
3868 444 2 -8.2999999999999996e-01 4.2766743296881895e+00 1.3906402219038980e+00 1.3807457940617493e+01 -2 3 0
4766 444 1 4.1499999999999998e-01 4.9286495397061092e+00 4.6811835970245417e+00 1.1095207282020283e+01 0 2 0
3324 444 1 4.1499999999999998e-01 2.0524768006925909e+00 3.4011642030829665e+00 9.6394237209279581e+00 -4 -2 0
4891 444 2 -8.2999999999999996e-01 3.0397037843460448e+00 3.5681625167860678e+00 1.3071019967898891e+01 5 -1 0
4892 444 1 4.1499999999999998e-01 3.0234921173369393e+00 3.3875203805288168e+00 1.2131158884080746e+01 5 -1 0
3869 444 1 4.1499999999999998e-01 4.3938800627315198e+00 5.8566811382777084e-01 1.3302963266374888e+01 -2 3 0
4893 444 1 4.1499999999999998e-01 2.2988232840507137e+00 4.1568730410732524e+00 1.3215062582905587e+01 5 -1 0
6508 444 2 -8.2999999999999996e-01 3.2389203643142417e-01 3.3977767004091830e+00 1.4205223641171861e+01 4 0 0
2481 444 1 4.1499999999999998e-01 2.0932850559105409e+00 5.5337835567329945e+00 1.6025557005538776e+01 -4 0 0
2065 444 2 -8.2999999999999996e-01 3.5981013215477091e+00 3.9695367622593020e-01 1.1017024163941503e+01 0 -1 0
3817 444 2 -8.2999999999999996e-01 2.9182046688718494e-01 5.6586504320471649e+00 1.2869798023200179e+01 2 -1 0
3818 444 1 4.1499999999999998e-01 1.9512090016369926e-01 5.4795983197681482e+00 1.1934479140291057e+01 2 -1 0
6510 444 1 4.1499999999999998e-01 1.1228764235994946e+00 3.4937997231896847e+00 1.4723524240976676e+01 4 0 0
5706 444 1 4.1499999999999998e-01 4.1294125487395827e-01 1.2149221916958799e+00 1.0596839930893335e+01 -2 4 0
4954 444 2 -8.2999999999999996e-01 9.6424471055468614e-02 2.7960286182296308e+00 9.9087757471883489e+00 4 0 0
5704 444 2 -8.2999999999999996e-01 4.1306897476728316e-01 2.6323960795975004e-01 1.0494213078899975e+01 -2 4 0
6509 444 1 4.1499999999999998e-01 2.2484019546489359e-01 4.2387421845386948e+00 1.3758906363315226e+01 4 0 0
2067 444 1 4.1499999999999998e-01 2.6721824166366468e+00 1.9852072004255339e-01 1.0877272771695104e+01 0 -1 0
4765 444 2 -8.2999999999999996e-01 5.1757229782863785e+00 5.5841069466649245e+00 1.0895416279028225e+01 0 2 0
5705 444 1 4.1499999999999998e-01 2.5637249884810975e-01 1.2253261036572888e-01 9.5604681147542596e+00 -2 4 0
2476 444 2 -8.2999999999999996e-01 7.5102400433322691e-01 8.7397511131078709e-01 1.9581532072222124e+01 -2 3 0
3567 444 1 4.1499999999999998e-01 3.7529539212669096e+00 3.7492154617620743e+00 1.8908964723597190e+01 4 -1 0
2478 444 1 4.1499999999999998e-01 7.9526172639269466e-01 1.6693612465164280e+00 1.9050837537895870e+01 -2 3 0
5030 444 1 4.1499999999999998e-01 3.7399819778869192e+00 1.9205235529527527e+00 2.2946974376144702e+01 -5 0 0
2774 444 1 4.1499999999999998e-01 3.3088496371913214e+00 3.2944593946838849e+00 1.6470984156903068e+01 -1 -2 0
743 444 1 4.1499999999999998e-01 7.8353676423740437e-01 3.8314564080261491e+00 1.7800320029261947e+01 2 0 0
742 444 2 -8.2999999999999996e-01 7.1217706475359266e-01 2.8941286421636931e+00 1.7619886327425860e+01 2 0 0
4844 444 1 4.1499999999999998e-01 2.3397500677710181e+00 1.0406168671647984e+00 2.0942884017971704e+01 0 3 0
4843 444 2 -8.2999999999999996e-01 2.9085147150535877e+00 1.5983786637168405e+00 2.1473582533171090e+01 0 3 0
4845 444 1 4.1499999999999998e-01 3.1356750974738770e+00 2.3275732924753942e+00 2.0896603073248119e+01 0 3 0
3565 444 2 -8.2999999999999996e-01 3.7001414990980490e+00 2.8981712421099353e+00 1.9343898632493495e+01 4 -1 0
4242 444 1 4.1499999999999998e-01 5.5681195559615642e+00 4.7563808435361610e+00 2.3774287452905561e+01 1 -2 0
744 444 1 4.1499999999999998e-01 1.4558503472729978e+00 2.7024186828033532e+00 1.7048546479402603e+01 2 0 0
5031 444 1 4.1499999999999998e-01 4.2386538464792682e+00 2.7340255600860774e+00 2.4122319601626302e+01 -5 0 0
6043 444 2 -8.2999999999999996e-01 2.5353841516988522e+00 4.7570417275150714e+00 2.3486219126339851e+01 -2 -5 0
5741 444 1 4.1499999999999998e-01 2.8036502490892814e+00 5.4524429617389636e+00 2.0239726105104221e+01 -1 3 0
6045 444 1 4.1499999999999998e-01 2.0567569435049253e+00 4.8712811014642021e+00 2.2665184891626478e+01 -2 -5 0
2479 444 2 -8.2999999999999996e-01 1.9787114795795206e+00 5.0445688251167953e+00 1.6840280223350049e+01 -4 0 0
6044 444 1 4.1499999999999998e-01 1.8701754067470335e+00 4.8552379646171140e+00 2.4167458221572581e+01 -2 -5 0
6263 444 1 4.1499999999999998e-01 2.3994013824298337e+00 1.9371449280499708e+00 2.4298797174679191e+01 1 -2 0
4241 444 1 4.1499999999999998e-01 4.0947156732136838e+00 4.7978074357446596e+00 2.4119629853686142e+01 1 -2 0
2480 444 1 4.1499999999999998e-01 2.6893457482656071e+00 5.3487476915621404e+00 1.7404820815170883e+01 -4 0 0
5029 444 2 -8.2999999999999996e-01 4.0723751870641252e+00 1.8344990085783630e+00 2.3840476791548060e+01 -5 0 0
3566 444 1 4.1499999999999998e-01 4.2682190791066574e+00 2.3281395954705015e+00 1.8825647427423487e+01 4 -1 0
4400 444 1 4.1499999999999998e-01 2.9725771705064599e+00 7.9363353147848570e-01 1.6315680780326979e+01 -2 4 0
2477 444 1 4.1499999999999998e-01 4.5962645029784066e-01 1.9520021050583614e-01 1.8972775747502830e+01 -2 3 0
4993 444 2 -8.2999999999999996e-01 4.2171956493950358e+00 5.4531573361804435e+00 1.8644399809004796e+01 0 4 0
3937 444 2 -8.2999999999999996e-01 5.2643648249291672e+00 8.0433746751554303e-01 1.7785094739937950e+01 4 -1 0
4994 444 1 4.1499999999999998e-01 4.6239892746357469e+00 5.6889938546751067e+00 1.7810654045824968e+01 0 4 0
6264 444 1 4.1499999999999998e-01 1.5342899426269720e+00 1.5543461115497843e+00 2.5480720571332984e+01 1 -2 0
3925 444 2 -8.2999999999999996e-01 9.1393770785764039e-01 5.0695389737720049e+00 2.7756540606692223e+01 1 1 0
1729 444 2 -8.2999999999999996e-01 4.6947405286527717e+00 4.8391690398010763e+00 2.7078372138111405e+01 -2 -1 0
4240 444 2 -8.2999999999999996e-01 4.9389263969307438e+00 4.4812952291463386e+00 2.4441128639231938e+01 1 -2 0
701 444 1 4.1499999999999998e-01 3.7969693257950787e-01 7.5210088574714795e-01 3.0274910231385299e+01 0 0 0
700 444 2 -8.2999999999999996e-01 4.9579662225979670e-01 1.2715803607136392e-01 3.0990591239214524e+01 0 0 0
3342 444 1 4.1499999999999998e-01 1.7203894485976023e+00 2.9952333208248185e+00 2.7591944354379617e+01 0 1 0
3341 444 1 4.1499999999999998e-01 2.3524751989763031e+00 1.6887765643782759e+00 2.7161207959108502e+01 0 1 0
6262 444 2 -8.2999999999999996e-01 1.4931930837600509e+00 1.7516272723519828e+00 2.4544972996098032e+01 1 -2 0
4678 444 2 -8.2999999999999996e-01 5.4275257769059393e-01 5.1898708951311177e+00 2.5257576476092652e+01 -3 -2 0
4822 444 2 -8.2999999999999996e-01 3.3704130933929370e+00 2.0907504524395972e+00 3.0517118036157918e+01 -3 2 0
4823 444 1 4.1499999999999998e-01 3.1158544114670312e+00 2.8235418162864105e+00 2.9956360571881987e+01 -3 2 0
4680 444 1 4.1499999999999998e-01 6.4591378073169547e-01 4.7254682139934969e+00 2.6088191402205965e+01 -3 -2 0
723 444 1 4.1499999999999998e-01 3.5745871756471259e+00 4.7601097186248067e+00 2.8394907166822726e+01 0 -6 0
721 444 2 -8.2999999999999996e-01 3.0235260991394366e+00 4.4986809334638291e+00 2.9132619803264447e+01 0 -6 0
722 444 1 4.1499999999999998e-01 3.5407201012795353e+00 4.7173159685794426e+00 2.9907823995871656e+01 0 -6 0
4824 444 1 4.1499999999999998e-01 2.5646450733898694e+00 1.8452822386777386e+00 3.0971777618863083e+01 -3 2 0
4380 444 1 4.1499999999999998e-01 1.1460056762074542e+00 2.8822124545872834e+00 3.1940893926179886e+01 1 2 0
1730 444 1 4.1499999999999998e-01 4.9794690840466025e+00 4.7315361155752536e+00 2.6170860871488657e+01 -2 -1 0
3340 444 2 -8.2999999999999996e-01 1.5044016608376085e+00 2.1032678582545614e+00 2.7319953746347050e+01 0 1 0
6153 444 1 4.1499999999999998e-01 4.0699469060388731e+00 8.0896023232843495e-01 2.6086223629543259e+01 5 -2 0
6151 444 2 -8.2999999999999996e-01 3.6879799725181415e+00 8.5699818116215021e-01 2.6962594324780262e+01 5 -2 0
5859 444 1 4.1499999999999998e-01 1.7464525707825820e+00 5.7997018232888431e+00 3.2048868433323058e+01 0 -2 0
3926 444 1 4.1499999999999998e-01 1.6421538607063391e+00 4.9526219316044022e+00 2.8366675570831195e+01 1 1 0
3611 444 1 4.1499999999999998e-01 5.1668793998875744e+00 1.7677341285073145e+00 3.0575868529353908e+01 6 3 0
3927 444 1 4.1499999999999998e-01 1.4107795940270024e-01 5.1427545168314230e+00 2.8316505213712759e+01 1 1 0
1731 444 1 4.1499999999999998e-01 4.3250658066920353e+00 5.7215049030310654e+00 2.7110868035884490e+01 -2 -1 0
833 444 1 4.1499999999999998e-01 3.7898851743194499e+00 5.3007508500550049e+00 3.3857907055995653e+01 2 2 0
1459 444 2 -8.2999999999999996e-01 4.2605764109519022e+00 2.0380794058269736e+00 3.3376425224700810e+01 -4 2 0
3505 444 2 -8.2999999999999996e-01 4.4557161332640165e+00 2.6901702524958773e+00 3.5988700741159207e+01 2 0 0
5045 444 1 4.1499999999999998e-01 8.8635067096717965e-02 5.5557605987457293e-01 3.2528587073588696e+01 0 -4 0
4997 444 1 4.1499999999999998e-01 2.2298636414321069e+00 1.9280986829271831e+00 3.5736709721405802e+01 0 1 0
4998 444 1 4.1499999999999998e-01 1.0441266398259985e+00 1.1473825196744971e+00 3.5210966738636301e+01 0 1 0
5256 444 1 4.1499999999999998e-01 8.1913248408889985e-02 3.0629634914427344e+00 3.6112503128994923e+01 3 1 0
834 444 1 4.1499999999999998e-01 4.3697111207811083e+00 4.2337781745208050e+00 3.4761935319898569e+01 2 2 0
3507 444 1 4.1499999999999998e-01 4.9272389559201226e+00 2.0266527045249076e+00 3.6492330169500924e+01 2 0 0
4378 444 2 -8.2999999999999996e-01 1.8556313481004869e+00 2.7558853565713561e+00 3.2570738979401916e+01 1 2 0
3506 444 1 4.1499999999999998e-01 4.3911891402625187e+00 2.3217453246648891e+00 3.5107604118728005e+01 2 0 0
5857 444 2 -8.2999999999999996e-01 2.2701073078420650e+00 5.4181100442614616e+00 3.2753429464930569e+01 0 -2 0
1293 444 1 4.1499999999999998e-01 2.8487200342678327e+00 3.8643028663886669e+00 3.7398969103100022e+01 0 2 0
1291 444 2 -8.2999999999999996e-01 3.3269423575154553e+00 4.4127923805322853e+00 3.8020816857875282e+01 0 2 0
832 444 2 -8.2999999999999996e-01 4.5953938290962499e+00 5.0454988610338960e+00 3.4307612497174780e+01 2 2 0
4996 444 2 -8.2999999999999996e-01 1.3294707251510851e+00 1.6836863152726986e+00 3.5950689263545392e+01 0 1 0
1460 444 1 4.1499999999999998e-01 3.5744174397562904e+00 2.3533072082368749e+00 3.2788164566088668e+01 -4 2 0
1292 444 1 4.1499999999999998e-01 4.2061221329008500e+00 4.0351934453131957e+00 3.8047159781739857e+01 0 2 0
5044 444 2 -8.2999999999999996e-01 1.7029196077270123e-01 8.1469421236865136e-01 3.3446422517981617e+01 0 -4 0
4379 444 1 4.1499999999999998e-01 1.5803845884746335e+00 2.0035845441276883e+00 3.3094680413492242e+01 1 2 0
5858 444 1 4.1499999999999998e-01 2.0704294011533970e+00 4.4825242862442281e+00 3.2721161626108852e+01 0 -2 0
1461 444 1 4.1499999999999998e-01 4.8696519793432094e+00 1.5697498996546371e+00 3.2805525343886941e+01 -4 2 0
687 444 1 4.1499999999999998e-01 2.0604494365346322e+00 5.7042224261266838e+00 3.8122125799597576e+01 3 -1 0
3833 444 1 4.1499999999999998e-01 5.3524067970417342e+00 2.3994307277645070e-02 3.6059260067604313e+01 2 -1 0
6593 444 7 0.0000000000000000e+00 1.6907200000000000e+00 5.8607399999999998e+00 0.0000000000000000e+00 0 0 0
6594 444 7 0.0000000000000000e+00 4.2285000000000004e+00 7.3259299999999996e+00 0.0000000000000000e+00 0 0 0
6595 444 7 -5.5559999999999998e-02 1.6907700000000001e+00 5.8607399999999998e+00 7.1781499999999996e+00 0 0 0
6596 444 7 -5.5559999999999998e-02 4.2285500000000003e+00 7.3259299999999996e+00 7.1781499999999996e+00 0 0 0
6597 444 7 0.0000000000000000e+00 2.5366499999999998e+00 7.3259299999999996e+00 2.3926400000000001e+00 0 0 0
6598 444 7 0.0000000000000000e+00 5.0744199999999999e+00 5.8607399999999998e+00 2.3926400000000001e+00 0 0 0
6599 444 7 0.0000000000000000e+00 8.4509000000000001e-01 7.3259299999999996e+00 4.7824200000000001e+00 0 0 0
6600 444 7 0.0000000000000000e+00 3.3828600000000000e+00 5.8607399999999998e+00 4.7824499999999999e+00 0 0 0
6601 444 7 0.0000000000000000e+00 1.6907200000000000e+00 8.7911099999999998e+00 0.0000000000000000e+00 0 0 0
6602 444 7 0.0000000000000000e+00 4.2285000000000004e+00 1.0256300000000000e+01 0.0000000000000000e+00 0 0 0
6603 444 7 -5.5559999999999998e-02 1.6907700000000001e+00 8.7911099999999998e+00 7.1781899999999998e+00 0 0 0
6604 444 7 -5.5559999999999998e-02 4.2285500000000003e+00 1.0256300000000000e+01 7.1781600000000001e+00 0 0 0
6605 444 7 0.0000000000000000e+00 2.5366499999999998e+00 1.0256300000000000e+01 2.3926400000000001e+00 0 0 0
6606 444 7 0.0000000000000000e+00 5.0744199999999999e+00 8.7911099999999998e+00 2.3926400000000001e+00 0 0 0
6607 444 7 0.0000000000000000e+00 8.4509000000000001e-01 1.0256300000000000e+01 4.7824499999999999e+00 0 0 0
6608 444 7 0.0000000000000000e+00 3.3828700000000000e+00 8.7911099999999998e+00 4.7824400000000002e+00 0 0 0
5697 444 1 4.1499999999999998e-01 1.4697364942550131e+00 7.2699090639404726e+00 9.8007749734931746e+00 1 3 0
1756 444 2 -8.2999999999999996e-01 2.6300850383693293e+00 8.8839119904153634e+00 1.2680298455436882e+01 0 1 0
1757 444 1 4.1499999999999998e-01 3.2989049793411822e+00 8.2128185572343231e+00 1.2544116400769216e+01 0 1 0
1801 444 2 -8.2999999999999996e-01 4.2750664720232292e+00 7.8245862278609239e+00 9.9439147325180492e+00 0 6 0
3906 444 1 4.1499999999999998e-01 4.1582588942267176e+00 9.7229630439407089e+00 1.5176798707125284e+01 2 -4 0
1803 444 1 4.1499999999999998e-01 4.6849093658995322e+00 8.0730216982849132e+00 9.1153373030521543e+00 0 6 0
3535 444 2 -8.2999999999999996e-01 5.5564658930616995e+00 1.0895545337912704e+01 1.4890827943069798e+01 3 -3 0
1802 444 1 4.1499999999999998e-01 4.5838953394837612e+00 6.9333151868421963e+00 1.0106680066081200e+01 0 6 0
2675 444 1 4.1499999999999998e-01 2.8620301652253874e+00 1.0043544988708950e+01 1.0814099625327765e+01 2 2 0
3904 444 2 -8.2999999999999996e-01 3.5619744344880018e+00 9.0116420759982105e+00 1.5410679044838139e+01 2 -4 0
3905 444 1 4.1499999999999998e-01 2.9425137874411260e+00 8.9684687752302263e+00 1.4682230489600983e+01 2 -4 0
1758 444 1 4.1499999999999998e-01 1.8048738937081910e+00 8.4462029858056340e+00 1.2471325740213917e+01 0 1 0
2674 444 2 -8.2999999999999996e-01 3.3284256809208848e+00 1.0670855677849676e+01 1.0261660567435436e+01 2 2 0
5695 444 2 -8.2999999999999996e-01 1.9796811278628619e+00 6.7662878560442685e+00 1.0435246500662654e+01 1 3 0
2676 444 1 4.1499999999999998e-01 3.4732682161777935e+00 1.0204401955599867e+01 9.4384512420564288e+00 2 2 0
5696 444 1 4.1499999999999998e-01 2.8773887603578827e+00 7.0794232179463465e+00 1.0324345010762956e+01 1 3 0
4846 444 2 -8.2999999999999996e-01 2.2751415857531390e+00 6.3487902020077813e+00 1.4529875909471746e+01 2 -1 0
2595 444 1 4.1499999999999998e-01 5.3990766076084347e+00 7.3161900280184531e+00 1.3510132724837003e+01 -1 -1 0
4848 444 1 4.1499999999999998e-01 3.0709115666088165e+00 6.5255872913597210e+00 1.4028153901078589e+01 2 -1 0
2594 444 1 4.1499999999999998e-01 4.8149898722539008e+00 6.3912665732923397e+00 1.2463588635437702e+01 -1 -1 0
2593 444 2 -8.2999999999999996e-01 4.6633298637585030e+00 6.7258923132544233e+00 1.3347475912634023e+01 -1 -1 0
3536 444 1 4.1499999999999998e-01 5.5715366326888009e+00 1.1716859804334824e+01 1.5382200794177264e+01 3 -3 0
1008 444 1 4.1499999999999998e-01 4.9545833653848126e+00 6.3298145901970200e+00 1.5377463624848664e+01 3 -3 0
6084 444 1 4.1499999999999998e-01 8.5928412381881480e-01 7.4494018288198314e+00 1.6206020070068572e+01 2 1 0
3537 444 1 4.1499999999999998e-01 5.1893581201199694e+00 1.1132168767300708e+01 1.4039080854849745e+01 3 -3 0
2853 444 1 4.1499999999999998e-01 4.3638595767631614e+00 1.1568032782651754e+01 1.1736177015616414e+01 2 -6 0
4847 444 1 4.1499999999999998e-01 1.5741691351848854e+00 6.3548926120541882e+00 1.3878084151252796e+01 2 -1 0
1007 444 1 4.1499999999999998e-01 4.0776977806776795e+00 7.1159723108140316e+00 1.6328737989084388e+01 3 -3 0
5544 444 1 4.1499999999999998e-01 3.5785602241267112e-01 6.0136849785387572e+00 2.0736808537295239e+01 -2 4 0
4392 444 1 4.1499999999999998e-01 4.1239014405122205e+00 1.1707932650992163e+01 2.2031107531043869e+01 -2 1 0
1006 444 2 -8.2999999999999996e-01 4.6995200360209761e+00 6.3888995366415209e+00 1.6298161402037557e+01 3 -3 0
6082 444 2 -8.2999999999999996e-01 1.1705263384735913e-01 7.4272669244469744e+00 1.6810035420259236e+01 2 1 0
5886 444 1 4.1499999999999998e-01 3.4424988752997787e-01 9.3089786729855852e+00 2.2346372809305365e+01 -3 -2 0
4386 444 1 4.1499999999999998e-01 3.0013308394128102e+00 6.6072032640312353e+00 2.3350662958090776e+01 2 1 0
1900 444 2 -8.2999999999999996e-01 1.6835646981867447e+00 1.1343169031507630e+01 1.9154207217718525e+01 -1 2 0
5358 444 1 4.1499999999999998e-01 4.1684627811390005e+00 8.9580339969648204e+00 2.2605130664930996e+01 0 -3 0
5356 444 2 -8.2999999999999996e-01 4.7727948008357384e+00 9.6912775210328945e+00 2.2489503684680418e+01 0 -3 0
2204 444 1 4.1499999999999998e-01 5.5074902299743762e+00 1.0021139273690402e+01 1.8393897450219704e+01 -4 0 0
4385 444 1 4.1499999999999998e-01 2.2490156800090912e+00 7.8921441594292645e+00 2.3077086618449350e+01 2 1 0
4384 444 2 -8.2999999999999996e-01 3.1331102928936865e+00 7.5394864349775741e+00 2.3178285076903837e+01 2 1 0
4046 444 1 4.1499999999999998e-01 3.1431808515990709e+00 1.0166468574303057e+01 1.8385316239983482e+01 1 -5 0
4047 444 1 4.1499999999999998e-01 3.7480075640267518e+00 9.3386664154473635e+00 1.7271393439568843e+01 1 -5 0
4045 444 2 -8.2999999999999996e-01 3.9808241471012340e+00 9.8525524346802733e+00 1.8044665815370028e+01 1 -5 0
1901 444 1 4.1499999999999998e-01 9.6646194418020159e-01 1.1413239827593726e+01 1.9784354695829023e+01 -1 2 0
5740 444 2 -8.2999999999999996e-01 2.2590663729612084e+00 5.9334631376132441e+00 2.0862847659993673e+01 -1 3 0
5742 444 1 4.1499999999999998e-01 2.8647147137307929e+00 6.5341741838107827e+00 2.1297092661313510e+01 -1 3 0
3534 444 1 4.1499999999999998e-01 5.3453863787573690e+00 7.3931619123720367e+00 2.0809518195697272e+01 5 5 0
5357 444 1 4.1499999999999998e-01 5.5103426272145262e+00 9.3203004540266754e+00 2.2005115783905591e+01 0 -3 0
3532 444 2 -8.2999999999999996e-01 5.2191307286852409e+00 6.4448668320582625e+00 2.0841584946809817e+01 5 5 0
5884 444 2 -8.2999999999999996e-01 5.6874336133993209e-01 8.4083639005815574e+00 2.2580312416369107e+01 -3 -2 0
4995 444 1 4.1499999999999998e-01 4.7192278523759894e+00 5.9355108918080086e+00 1.9301309674762102e+01 0 4 0
5723 444 1 4.1499999999999998e-01 3.9752124043227011e+00 7.8253958900944509e+00 3.0372192562072328e+01 3 0 0
4549 444 2 -8.2999999999999996e-01 1.5210803776267108e+00 9.5427085863330348e+00 2.8227847482246656e+01 1 -1 0
3064 444 2 -8.2999999999999996e-01 5.5326773740849697e+00 6.4133372563106477e+00 3.0207819233949227e+01 1 2 0
3379 444 2 -8.2999999999999996e-01 4.8923807849633866e-01 6.2997940303164413e+00 3.0793170537935424e+01 1 1 0
596 444 1 4.1499999999999998e-01 3.5541881411515130e+00 7.4369064839058252e+00 2.4949509207540633e+01 -1 -4 0
595 444 2 -8.2999999999999996e-01 4.0021530870110347e+00 7.3407120411569311e+00 2.5789929526527342e+01 -1 -4 0
597 444 1 4.1499999999999998e-01 4.9183698038828885e+00 7.5403213343436306e+00 2.5597744778291744e+01 -1 -4 0
2688 444 1 4.1499999999999998e-01 9.3859123083303120e-01 6.8202398809938316e+00 2.5819889997033677e+01 -7 2 0
1835 444 1 4.1499999999999998e-01 4.5907824013600180e+00 9.2853590190741624e+00 2.9091598786579926e+01 2 4 0
3035 444 1 4.1499999999999998e-01 3.2637892342763628e+00 1.1503541773225406e+01 2.5392015534755913e+01 3 -3 0
5132 444 1 4.1499999999999998e-01 2.3144323316539852e+00 1.0650578236503424e+01 3.2128281518695069e+01 1 -1 0
5722 444 2 -8.2999999999999996e-01 3.1175643015176204e+00 8.2185166209655236e+00 3.0210548555853833e+01 3 0 0
4550 444 1 4.1499999999999998e-01 2.1535574195059581e+00 8.9509462859786115e+00 2.8635305722348516e+01 1 -1 0
868 444 2 -8.2999999999999996e-01 1.2893094451144651e+00 1.1713655200368308e+01 3.0744944890079331e+01 -3 -2 0
870 444 1 4.1499999999999998e-01 6.3461946267630742e-01 1.1162781910720854e+01 3.0315815690382429e+01 -3 -2 0
5133 444 1 4.1499999999999998e-01 2.6306601571222279e+00 9.2600426687965438e+00 3.1620042999950794e+01 1 -1 0
1834 444 2 -8.2999999999999996e-01 5.3788372018828072e+00 9.8109919915092956e+00 2.8954079525971483e+01 2 4 0
5131 444 2 -8.2999999999999996e-01 2.4901349071285113e+00 9.7578077003095700e+00 3.2425471968848058e+01 1 -1 0
1836 444 1 4.1499999999999998e-01 5.1744335335996254e+00 1.0658092937058008e+01 2.9350149371456038e+01 2 4 0
2687 444 1 4.1499999999999998e-01 2.2190202203235696e+00 7.5609523646772070e+00 2.6141979768276144e+01 -7 2 0
5724 444 1 4.1499999999999998e-01 2.4956564170125195e+00 7.5052474030877745e+00 3.0354458385821399e+01 3 0 0
968 444 1 4.1499999999999998e-01 4.7976104092246858e+00 1.0082153986046997e+01 2.4377732556195518e+01 0 2 0
2686 444 2 -8.2999999999999996e-01 1.2926237858467584e+00 7.7006139610182718e+00 2.5945724435719875e+01 -7 2 0
967 444 2 -8.2999999999999996e-01 4.6613784349552327e+00 1.0183102265941075e+01 2.5319795674022153e+01 0 2 0
4551 444 1 4.1499999999999998e-01 1.3153581739780427e+00 9.1325917482033816e+00 2.7387779226934875e+01 1 -1 0
969 444 1 4.1499999999999998e-01 5.3716377902438355e+00 9.6815771796446004e+00 2.5720091023020540e+01 0 2 0
3380 444 1 4.1499999999999998e-01 4.1577556622740985e-02 7.1356039165404930e+00 3.0661813225182811e+01 1 1 0
2121 444 1 4.1499999999999998e-01 3.8048114099808008e+00 1.1007063250702558e+01 3.5819965953019988e+01 5 4 0
3671 444 1 4.1499999999999998e-01 5.0297114254632183e+00 9.3527687717063142e+00 3.4278275794015094e+01 4 2 0
1139 444 1 4.1499999999999998e-01 8.0313046173638469e-01 1.1017891267948922e+01 3.7576284648148494e+01 -1 1 0
3319 444 2 -8.2999999999999996e-01 9.2082214174818944e-01 1.0870516384471474e+01 3.5119672313564351e+01 1 0 0
916 444 2 -8.2999999999999996e-01 5.5549943088691398e+00 6.5426227987866019e+00 3.6446204040366105e+01 3 3 0
4752 444 1 4.1499999999999998e-01 1.5476053413142493e-01 7.7007476830603911e+00 3.8686088808464397e+01 5 -1 0
3005 444 1 4.1499999999999998e-01 1.9899596210567725e+00 8.0485091884595814e+00 3.3940041214766964e+01 3 1 0
4830 444 1 4.1499999999999998e-01 2.7290174758928614e+00 7.7213848764224844e+00 3.5948478715702599e+01 6 0 0
2120 444 1 4.1499999999999998e-01 2.3523061749010661e+00 1.1429224583802325e+01 3.5882444466924696e+01 5 4 0
6479 444 1 4.1499999999999998e-01 3.4567397842892367e-01 1.0842722410562935e+01 3.9548666569808219e+01 -2 -5 0
685 444 2 -8.2999999999999996e-01 1.5908697190981911e+00 6.5360012677657515e+00 3.8184342755465337e+01 3 -1 0
3320 444 1 4.1499999999999998e-01 1.1299678168817204e+00 1.0268630762119784e+01 3.4405372773823650e+01 1 0 0
4829 444 1 4.1499999999999998e-01 3.6945319285375051e+00 8.8020375261246642e+00 3.6386505273073155e+01 6 0 0
2119 444 2 -8.2999999999999996e-01 3.1766801595014202e+00 1.1479512707402154e+01 3.6366294151811722e+01 5 4 0
3672 444 1 4.1499999999999998e-01 3.6953781115344144e+00 9.8855043635440705e+00 3.3801156470423201e+01 4 2 0
6478 444 2 -8.2999999999999996e-01 3.0168311883431637e-01 1.0120425573381372e+01 4.0175233005577766e+01 -2 -5 0
686 444 1 4.1499999999999998e-01 2.1743639630699017e+00 7.1724862717960391e+00 3.7771240806858138e+01 3 -1 0
3004 444 2 -8.2999999999999996e-01 1.6206376731101637e+00 7.5932257945016053e+00 3.4696711803169357e+01 3 1 0
917 444 1 4.1499999999999998e-01 4.8690099860912008e+00 7.1502437177913007e+00 3.6722709469887896e+01 3 3 0
4828 444 2 -8.2999999999999996e-01 3.2787783913072213e+00 7.9926474800407092e+00 3.6683605680266844e+01 6 0 0
3670 444 2 -8.2999999999999996e-01 4.1545200509977294e+00 9.5878282670418358e+00 3.4586529232627903e+01 4 2 0
3006 444 1 4.1499999999999998e-01 1.5127136806724466e+00 6.6885281614355856e+00 3.4403272500320497e+01 3 1 0
918 444 1 4.1499999999999998e-01 5.1046014975971463e+00 5.9115333376599626e+00 3.5884861878131765e+01 3 3 0
6480 444 1 4.1499999999999998e-01 3.1710205296226235e-01 1.0545361651022677e+01 4.1032801405896436e+01 -2 -5 0
6609 444 7 0.0000000000000000e+00 1.6907200000000000e+00 1.1721480000000000e+01 0.0000000000000000e+00 0 0 0
6610 444 7 0.0000000000000000e+00 4.2285000000000004e+00 1.3186669999999999e+01 0.0000000000000000e+00 0 0 0
6611 444 7 -5.5559999999999998e-02 1.6907700000000001e+00 1.1721480000000000e+01 7.1781499999999996e+00 0 0 0
6612 444 7 -5.5559999999999998e-02 4.2285500000000003e+00 1.3186669999999999e+01 7.1781499999999996e+00 0 0 0
6613 444 7 0.0000000000000000e+00 2.5366499999999998e+00 1.3186669999999999e+01 2.3926400000000001e+00 0 0 0
6614 444 7 0.0000000000000000e+00 5.0744199999999999e+00 1.1721480000000000e+01 2.3926400000000001e+00 0 0 0
6615 444 7 0.0000000000000000e+00 8.4509000000000001e-01 1.3186669999999999e+01 4.7824200000000001e+00 0 0 0
6616 444 7 0.0000000000000000e+00 3.3828600000000000e+00 1.1721480000000000e+01 4.7824499999999999e+00 0 0 0
6617 444 7 0.0000000000000000e+00 1.6907200000000000e+00 1.4651850000000000e+01 0.0000000000000000e+00 0 0 0
6619 444 7 -5.5559999999999998e-02 1.6907700000000001e+00 1.4651850000000000e+01 7.1781899999999998e+00 0 0 0
6622 444 7 0.0000000000000000e+00 5.0744199999999999e+00 1.4651850000000000e+01 2.3926400000000001e+00 0 0 0
6624 444 7 0.0000000000000000e+00 3.3828700000000000e+00 1.4651850000000000e+01 4.7824400000000002e+00 0 0 0
6618 444 7 0.0000000000000000e+00 4.2285000000000004e+00 1.6117039999999999e+01 0.0000000000000000e+00 0 0 0
6620 444 7 -5.5559999999999998e-02 4.2285500000000003e+00 1.6117039999999999e+01 7.1781600000000001e+00 0 0 0
6621 444 7 0.0000000000000000e+00 2.5366499999999998e+00 1.6117039999999999e+01 2.3926400000000001e+00 0 0 0
6623 444 7 0.0000000000000000e+00 8.4509000000000001e-01 1.6117039999999999e+01 4.7824499999999999e+00 0 0 0
1345 444 2 -8.2999999999999996e-01 3.3320268384950396e+00 1.3337481057094156e+01 1.0176981293723051e+01 2 1 0
857 444 1 4.1499999999999998e-01 1.3621346638003498e+00 1.4827844087805147e+01 1.1537962710151033e+01 0 0 0
5177 444 1 4.1499999999999998e-01 4.3782732144372849e+00 1.3375963634673612e+01 1.2982123881199527e+01 0 -2 0
1347 444 1 4.1499999999999998e-01 2.4287574329222217e+00 1.3412146157064205e+01 9.8691479141414025e+00 2 1 0
856 444 2 -8.2999999999999996e-01 2.1165056824919848e+00 1.5376706195637178e+01 1.1323704346759884e+01 0 0 0
3523 444 2 -8.2999999999999996e-01 3.5073477191663521e-01 1.3348249919097992e+01 1.0296679138238515e+01 0 -1 0
633 444 1 4.1499999999999998e-01 2.5818646382377555e+00 1.2637723116253989e+01 1.4056266645157852e+01 -1 -7 0
858 444 1 4.1499999999999998e-01 2.8167838205822386e+00 1.4755155113982184e+01 1.1124916147576020e+01 0 0 0
632 444 1 4.1499999999999998e-01 1.7418495595942123e+00 1.3608766519824229e+01 1.4858354325459748e+01 -1 -7 0
631 444 2 -8.2999999999999996e-01 1.6954895855965704e+00 1.2774961768808963e+01 1.4390537347314631e+01 -1 -7 0