LAMMPS data file via write_data, version 11 Aug 2017, timestep = 500000

7296 atoms
7 atom types
4160 bonds
5 bond types
2260 angles
3 angle types
300 dihedrals
2 dihedral types

0.0000000000000000e+00 4.5679949999999998e+01 xlo xhi
0.0000000000000000e+00 4.6885919999999999e+01 ylo yhi
0.0000000000000000e+00 6.5000000000000000e+01 zlo zhi

Masses

1 1.0079
2 15.9994
3 22.9898
4 15.9994
5 12.011
6 1.0079
7 107.868

Angle Coeffs # harmonic

1 50 109.471
2 50 104.51
3 55 104.52

Dihedral Coeffs # charmm

1 0.111111 3 0 0
2 0.333333 3 0 0

Atoms # full

6145 444 7 0.0000000000000000e+00 1.6907200000000000e+00 0.0000000000000000e+00 0.0000000000000000e+00 0 0 0
6146 444 7 0.0000000000000000e+00 4.2285000000000004e+00 1.4651900000000000e+00 0.0000000000000000e+00 0 0 0
6147 444 7 -1.3890000000000000e-02 1.6907700000000001e+00 0.0000000000000000e+00 7.1781499999999996e+00 0 0 0
6148 444 7 -1.3890000000000000e-02 4.2285500000000003e+00 1.4651900000000000e+00 7.1781499999999996e+00 0 0 0
6149 444 7 0.0000000000000000e+00 2.5366499999999998e+00 1.4651900000000000e+00 2.3926400000000001e+00 0 0 0
6150 444 7 0.0000000000000000e+00 5.0744199999999999e+00 0.0000000000000000e+00 2.3926400000000001e+00 0 0 0
6151 444 7 0.0000000000000000e+00 8.4509000000000001e-01 1.4651900000000000e+00 4.7824200000000001e+00 0 0 0
6152 444 7 0.0000000000000000e+00 3.3828600000000000e+00 0.0000000000000000e+00 4.7824499999999999e+00 0 0 0
6153 444 7 0.0000000000000000e+00 1.6907200000000000e+00 2.9303699999999999e+00 0.0000000000000000e+00 0 0 0
6154 444 7 0.0000000000000000e+00 4.2285000000000004e+00 4.3955599999999997e+00 0.0000000000000000e+00 0 0 0
6155 444 7 -1.3890000000000000e-02 1.6907700000000001e+00 2.9303699999999999e+00 7.1781899999999998e+00 0 0 0
6156 444 7 -1.3890000000000000e-02 4.2285500000000003e+00 4.3955599999999997e+00 7.1781600000000001e+00 0 0 0
6157 444 7 0.0000000000000000e+00 2.5366499999999998e+00 4.3955599999999997e+00 2.3926400000000001e+00 0 0 0
6158 444 7 0.0000000000000000e+00 5.0744199999999999e+00 2.9303699999999999e+00 2.3926400000000001e+00 0 0 0
6159 444 7 0.0000000000000000e+00 8.4509000000000001e-01 4.3955599999999997e+00 4.7824499999999999e+00 0 0 0
6160 444 7 0.0000000000000000e+00 3.3828700000000000e+00 2.9303699999999999e+00 4.7824400000000002e+00 0 0 0
279 444 1 4.1499999999999998e-01 1.7599051061252635e+00 4.5876044169912022e+00 1.3660837675999321e+01 5 -1 0
4541 444 1 4.1499999999999998e-01 2.0938449825880587e+00 4.0089244585076820e+00 1.6049492633353928e+01 0 6 0
4435 444 2 -8.2999999999999996e-01 1.1973651120435231e+00 3.0250072436754505e+00 1.0248866232765096e+01 -1 1 0
4437 444 1 4.1499999999999998e-01 9.0007876113683383e-01 3.7468760029771295e+00 9.6950086398257387e+00 -1 1 0
2491 444 2 -8.2999999999999996e-01 3.1460660331485597e+00 3.5918769031039086e+00 1.4641752016812109e+01 -4 1 0
277 444 2 -8.2999999999999996e-01 1.6287710802402413e+00 5.1862985572925586e+00 1.2925581516320015e+01 5 -1 0
5016 444 1 4.1499999999999998e-01 2.9206210139454178e+00 4.1756222868971546e+00 1.0768496876138322e+01 0 2 0
2492 444 1 4.1499999999999998e-01 3.2896045951432518e+00 2.9057492293220082e+00 1.3989940895171410e+01 -4 1 0
5015 444 1 4.1499999999999998e-01 3.2689717700954639e+00 5.6488294402191315e+00 1.0782913089593789e+01 0 2 0
5014 444 2 -8.2999999999999996e-01 3.6186765718197780e+00 4.7906250626752058e+00 1.0543279897100506e+01 0 2 0
1200 444 1 4.1499999999999998e-01 2.4431887509323706e+00 1.3830905823213202e+00 1.0167968002776242e+01 1 1 0
1199 444 1 4.1499999999999998e-01 3.2410626736886567e+00 1.4290823321078421e+00 1.1453727407618334e+01 1 1 0
5629 444 2 -8.2999999999999996e-01 3.4616377056677954e+00 1.0137937446939760e+00 1.2986416731832284e+01 -1 2 0
2493 444 1 4.1499999999999998e-01 4.0149024767086363e+00 3.7633545236596970e+00 1.5005003260646914e+01 -4 1 0
1198 444 2 -8.2999999999999996e-01 3.3018437321953860e+00 1.1710085313698324e+00 1.0533979900140411e+01 1 1 0
4618 444 2 -8.2999999999999996e-01 1.5312781277573456e-01 5.7618039094827687e+00 1.0710936945292429e+01 0 5 0
3459 444 1 4.1499999999999998e-01 4.4869712905717835e-01 3.1128233907697389e+00 1.6076434467551159e+01 3 0 0
4620 444 1 4.1499999999999998e-01 8.3141302663141869e-01 5.4325275303487430e+00 1.1300630808748394e+01 0 5 0
4263 444 1 4.1499999999999998e-01 5.6900353546168683e+00 3.4195493631341027e+00 1.6206136846603997e+01 1 3 0
5630 444 1 4.1499999999999998e-01 3.4515106751052538e+00 1.8250015597891123e-01 1.3460843080268914e+01 -1 2 0
5631 444 1 4.1499999999999998e-01 4.3524330735848480e+00 1.3447719350448046e+00 1.3101177646063391e+01 -1 2 0
3321 444 1 4.1499999999999998e-01 4.7047501106480230e+00 3.6521265658789734e+00 9.9928572365542596e+00 4 -1 0
3458 444 1 4.1499999999999998e-01 3.4612174166063339e-02 1.7042620437653777e+00 1.5707132665944506e+01 3 0 0
3319 444 2 -8.2999999999999996e-01 5.3029931375753527e+00 2.9119748925188116e+00 1.0095388525816356e+01 4 -1 0
4436 444 1 4.1499999999999998e-01 3.9662044842393795e-01 2.6801966943703857e+00 1.0644018773288064e+01 -1 1 0
3320 444 1 4.1499999999999998e-01 4.7364669290094961e+00 2.1407300225621344e+00 1.0073911099310136e+01 4 -1 0
2145 444 1 4.1499999999999998e-01 5.5130566714438904e+00 5.5961650262835896e+00 2.1209298364776107e+01 -1 -4 0
768 444 1 4.1499999999999998e-01 4.6693248811047230e+00 5.7644681448059503e+00 2.3622865788440926e+01 3 -1 0
1065 444 1 4.1499999999999998e-01 1.3341706137569015e-01 3.6048915428063353e+00 2.1114306461513305e+01 2 3 0
4540 444 2 -8.2999999999999996e-01 1.6812934907438006e+00 3.8182133792210364e+00 1.6891907976285445e+01 0 6 0
1063 444 2 -8.2999999999999996e-01 7.3748981057499052e-01 3.7212859668467408e+00 2.1847641526922221e+01 2 3 0
1142 444 1 4.1499999999999998e-01 3.7315964340177155e-01 3.7681157459088048e+00 2.3744299333173615e+01 0 -3 0
4542 444 1 4.1499999999999998e-01 2.0902704127260141e+00 4.4305260780915647e+00 1.7503499092808958e+01 0 6 0
1841 444 1 4.1499999999999998e-01 2.0874395649602446e+00 1.5506702027690284e+00 1.8629475815205389e+01 -4 1 0
145 444 2 -8.2999999999999996e-01 3.0292493009952386e+00 2.6974915654006364e+00 2.1005674806340334e+01 -2 -1 0
2871 444 1 4.1499999999999998e-01 4.1777942443285347e+00 5.1105365900661219e+00 1.8971125683975828e+01 5 -1 0
147 444 1 4.1499999999999998e-01 2.8380808128016324e+00 1.9591812947658636e+00 2.0427240587895987e+01 -2 -1 0
4025 444 1 4.1499999999999998e-01 2.0012739237008406e+00 6.3765748115969423e-01 2.4269420064408770e+01 -2 2 0
766 444 2 -8.2999999999999996e-01 5.0796429878463520e+00 5.0947939261779691e+00 2.4170047169193769e+01 3 -1 0
767 444 1 4.1499999999999998e-01 4.6906882368280423e+00 4.2717319050602169e+00 2.3874217551581054e+01 3 -1 0
146 444 1 4.1499999999999998e-01 3.9385636764255838e+00 2.9250727831552665e+00 2.0811802043716607e+01 -2 -1 0
2869 444 2 -8.2999999999999996e-01 3.9968804543917389e+00 4.8407166577323313e+00 1.8070736675051997e+01 5 -1 0
2870 444 1 4.1499999999999998e-01 4.7806477056967021e+00 4.3615869299226171e+00 1.7801707995571274e+01 5 -1 0
1842 444 1 4.1499999999999998e-01 1.4767006320985567e+00 2.5938017569820093e-01 1.9130936980125767e+01 -4 1 0
1840 444 2 -8.2999999999999996e-01 2.1910285588279401e+00 8.7408051412689236e-01 1.9298600391288282e+01 -4 1 0
3443 444 1 4.1499999999999998e-01 3.3489624646582077e+00 2.7202374303866863e+00 2.2967250925535044e+01 2 -2 0
2143 444 2 -8.2999999999999996e-01 4.7358677328386669e+00 5.3812392721753648e+00 2.0693530770803847e+01 -1 -4 0
3442 444 2 -8.2999999999999996e-01 4.0278648080245976e+00 2.7551495941979227e+00 2.3641123805322376e+01 2 -2 0
1701 444 1 4.1499999999999998e-01 5.4582238575311219e+00 2.6914462329074706e+00 2.2451894358510877e+01 -2 -3 0
1064 444 1 4.1499999999999998e-01 1.5516265287622224e+00 3.3114663579016526e+00 2.1555304032606038e+01 2 3 0
2144 444 1 4.1499999999999998e-01 4.0410068386934537e+00 5.2685754510637199e+00 2.1342150129248456e+01 -1 -4 0
1700 444 1 4.1499999999999998e-01 5.7000828564383275e+00 1.3300333893249430e+00 2.1835489796048300e+01 -2 -3 0
2276 444 1 4.1499999999999998e-01 3.5378808002192597e+00 3.7367425798862541e-02 1.9260391799082637e+01 -2 0 0
3474 444 1 4.1499999999999998e-01 2.9918566719809174e+00 5.1943349664529386e+00 3.0935416163711729e+01 4 0 0
3668 444 1 4.1499999999999998e-01 5.8498596410465253e-01 4.9577533868686494e+00 2.8133975102084193e+01 1 3 0
1900 444 2 -8.2999999999999996e-01 5.1065479951455934e+00 7.6344810230871374e-01 2.6766038139149476e+01 0 3 0
4814 444 1 4.1499999999999998e-01 6.6025174173362100e-01 1.1033566768289738e+00 2.6360275997538679e+01 2 1 0
1143 444 1 4.1499999999999998e-01 6.9059173493805392e-01 4.5860607109961453e+00 2.4978032788108234e+01 0 -3 0
1148 444 1 4.1499999999999998e-01 4.7336601048774547e+00 5.5517267580358283e+00 3.1760024286824052e+01 -2 2 0
3444 444 1 4.1499999999999998e-01 3.6579581819418880e+00 2.2715626328462251e+00 2.4379733771345496e+01 2 -2 0
6025 444 2 -8.2999999999999996e-01 4.4613594452017118e+00 5.0059493975953933e+00 2.8191564912834302e+01 3 -2 0
4950 444 1 4.1499999999999998e-01 2.7062933480464331e+00 2.5781746717565674e+00 2.6289389621792267e+01 -4 2 0
4948 444 2 -8.2999999999999996e-01 2.8558368340128917e+00 1.8470096369173088e+00 2.5690000397514382e+01 -4 2 0
4001 444 1 4.1499999999999998e-01 3.0107586615968192e+00 4.1630783118409642e+00 2.7960599865220111e+01 -1 -3 0
4852 444 2 -8.2999999999999996e-01 4.2389974965377490e+00 2.8221604106891723e-01 2.9360674446750473e+01 2 3 0
4854 444 1 4.1499999999999998e-01 3.3504897739464115e+00 2.6067409489419485e-01 2.9716094105540098e+01 2 3 0
4757 444 1 4.1499999999999998e-01 3.0493649737758073e+00 1.5125074111078480e+00 3.2262629823980639e+01 2 2 0
5516 444 1 4.1499999999999998e-01 5.3310446902160207e+00 1.5204509434199425e+00 2.9656936766396143e+01 4 -1 0
4758 444 1 4.1499999999999998e-01 3.8170364797416196e+00 2.4539146515149111e+00 3.1359120911440414e+01 2 2 0
884 444 1 4.1499999999999998e-01 8.9121153074817505e-01 1.2437440435525897e+00 2.9708683894500091e+01 1 3 0
4000 444 2 -8.2999999999999996e-01 2.2757318687859533e+00 3.5762382092188338e+00 2.7782871898514426e+01 -1 -3 0
4815 444 1 4.1499999999999998e-01 1.3263548084641866e-01 2.3845451644667031e+00 2.5750297796319465e+01 2 1 0
4002 444 1 4.1499999999999998e-01 2.3708117170460863e+00 2.8716169965330720e+00 2.8423731552877364e+01 -1 -3 0
883 444 2 -8.2999999999999996e-01 1.5035911806095521e+00 5.0856461170818457e-01 2.9681584649554505e+01 1 3 0
4756 444 2 -8.2999999999999996e-01 3.0710801007021460e+00 2.4196661070453169e+00 3.1957959828051482e+01 2 2 0
6027 444 1 4.1499999999999998e-01 3.8094855390006774e+00 5.1508491795583353e+00 2.8877346487426557e+01 3 -2 0
6026 444 1 4.1499999999999998e-01 5.2979804045846590e+00 4.9854173969609334e+00 2.8656189145917281e+01 3 -2 0
4949 444 1 4.1499999999999998e-01 3.0813439697302147e+00 1.1117628776363304e+00 2.6259905074914247e+01 -4 2 0
1902 444 1 4.1499999999999998e-01 4.8776125776517327e+00 5.5660542286198089e-01 2.7672149212722321e+01 0 3 0
3472 444 2 -8.2999999999999996e-01 2.6446975866072822e+00 5.2816608435438601e+00 3.0047673306831296e+01 4 0 0
1141 444 2 -8.2999999999999996e-01 2.0506709463646153e-01 3.8147600891487894e+00 2.4685469631694708e+01 0 -3 0
734 444 1 4.1499999999999998e-01 1.2671662400089403e+00 3.6381706110666485e+00 3.5407905207173009e+01 1 1 0
5105 444 1 4.1499999999999998e-01 5.1685846562050397e+00 4.3482877595237888e+00 3.6971696139622388e+01 0 -5 0
735 444 1 4.1499999999999998e-01 2.7153929191405202e+00 3.3616858778664569e+00 3.5751548998080587e+01 1 1 0
5841 444 1 4.1499999999999998e-01 2.5476087968903363e+00 2.2546513067917822e+00 3.8136674554159121e+01 0 -1 0
5840 444 1 4.1499999999999998e-01 3.8956492406441670e+00 1.7001402911909642e+00 3.7727773804613165e+01 0 -1 0
5634 444 1 4.1499999999999998e-01 3.4720695497346403e+00 1.1822365202722103e+00 3.5297655229274334e+01 -3 4 0
5839 444 2 -8.2999999999999996e-01 2.9868181289135487e+00 1.7723659821994076e+00 3.7436154651974206e+01 0 -1 0
733 444 2 -8.2999999999999996e-01 2.0582918092486091e+00 4.0576890523762099e+00 3.5746071957182401e+01 1 1 0
5106 444 1 4.1499999999999998e-01 4.4031353184691300e+00 4.0717192936282407e+00 3.8248211862642385e+01 0 -5 0
5728 444 2 -8.2999999999999996e-01 4.9525965618931833e+00 5.5727273592747801e+00 3.5455325938889217e+01 -2 0 0
5632 444 2 -8.2999999999999996e-01 4.3343295728747080e+00 1.1633364993489281e+00 3.4882465505916699e+01 -3 4 0
5086 444 2 -8.2999999999999996e-01 3.2960097251327714e+00 5.2908696883837676e+00 3.2725871841188216e+01 -1 4 0
5088 444 1 4.1499999999999998e-01 3.3833367588721299e+00 4.3795806219694517e+00 3.3005440773251578e+01 -1 4 0
5730 444 1 4.1499999999999998e-01 5.0522003139715075e+00 5.0542700390521009e+00 3.4656881597479689e+01 -2 0 0
659 444 1 4.1499999999999998e-01 5.3377719200853244e+00 2.5968121107520030e+00 3.4378452176026897e+01 5 -1 0
6126 444 1 4.1499999999999998e-01 2.2652859992262062e+00 4.1822965479497416e+00 3.7617163334383704e+01 0 -2 0
6125 444 1 4.1499999999999998e-01 1.8854936047737878e+00 4.9242729691977569e+00 3.8880937046826460e+01 0 -2 0
6124 444 2 -8.2999999999999996e-01 2.5440950371167128e+00 4.3303124556959727e+00 3.8520816304605326e+01 0 -2 0
5104 444 2 -8.2999999999999996e-01 5.1441512869848838e+00 3.7616383412616421e+00 3.7727657338428948e+01 0 -5 0
5633 444 1 4.1499999999999998e-01 4.3542779035345953e+00 3.3198064231008351e-01 3.4408459746880105e+01 -3 4 0
5087 444 1 4.1499999999999998e-01 2.8060292730500112e+00 5.7125595122764148e+00 3.3431796255885111e+01 -1 4 0
6161 444 7 0.0000000000000000e+00 1.6907200000000000e+00 5.8607399999999998e+00 0.0000000000000000e+00 0 0 0
6162 444 7 0.0000000000000000e+00 4.2285000000000004e+00 7.3259299999999996e+00 0.0000000000000000e+00 0 0 0
6163 444 7 -1.3890000000000000e-02 1.6907700000000001e+00 5.8607399999999998e+00 7.1781499999999996e+00 0 0 0
6164 444 7 -1.3890000000000000e-02 4.2285500000000003e+00 7.3259299999999996e+00 7.1781499999999996e+00 0 0 0
6165 444 7 0.0000000000000000e+00 2.5366499999999998e+00 7.3259299999999996e+00 2.3926400000000001e+00 0 0 0
6166 444 7 0.0000000000000000e+00 5.0744199999999999e+00 5.8607399999999998e+00 2.3926400000000001e+00 0 0 0
6167 444 7 0.0000000000000000e+00 8.4509000000000001e-01 7.3259299999999996e+00 4.7824200000000001e+00 0 0 0
6168 444 7 0.0000000000000000e+00 3.3828600000000000e+00 5.8607399999999998e+00 4.7824499999999999e+00 0 0 0
6169 444 7 0.0000000000000000e+00 1.6907200000000000e+00 8.7911099999999998e+00 0.0000000000000000e+00 0 0 0
6170 444 7 0.0000000000000000e+00 4.2285000000000004e+00 1.0256300000000000e+01 0.0000000000000000e+00 0 0 0
6171 444 7 -1.3890000000000000e-02 1.6907700000000001e+00 8.7911099999999998e+00 7.1781899999999998e+00 0 0 0
6172 444 7 -1.3890000000000000e-02 4.2285500000000003e+00 1.0256300000000000e+01 7.1781600000000001e+00 0 0 0
6173 444 7 0.0000000000000000e+00 2.5366499999999998e+00 1.0256300000000000e+01 2.3926400000000001e+00 0 0 0
6174 444 7 0.0000000000000000e+00 5.0744199999999999e+00 8.7911099999999998e+00 2.3926400000000001e+00 0 0 0
6175 444 7 0.0000000000000000e+00 8.4509000000000001e-01 1.0256300000000000e+01 4.7824499999999999e+00 0 0 0
6176 444 7 0.0000000000000000e+00 3.3828700000000000e+00 8.7911099999999998e+00 4.7824400000000002e+00 0 0 0
5904 444 1 4.1499999999999998e-01 5.1001423851866710e+00 9.9111608983319428e+00 9.9740100903173250e+00 0 2 0
5669 444 1 4.1499999999999998e-01 2.4396922616287435e+00 7.9953851078330853e+00 1.5216885583794504e+01 0 2 0
4225 444 2 -8.2999999999999996e-01 4.6801325537538707e+00 6.6901170220644364e+00 1.2812895065544373e+01 1 -1 0
3255 444 1 4.1499999999999998e-01 2.8296499392293311e+00 9.8925568918429168e+00 9.5076168968510419e+00 2 -2 0
3679 444 2 -8.2999999999999996e-01 2.8785006501547357e+00 8.1763579780435922e+00 1.1686984647866961e+01 1 -4 0
3681 444 1 4.1499999999999998e-01 3.5879923306585568e+00 7.6069592064274660e+00 1.1984706791123775e+01 1 -4 0
3253 444 2 -8.2999999999999996e-01 3.4169396965399366e+00 1.0379233212264374e+01 1.0085949644998635e+01 2 -2 0
5670 444 1 4.1499999999999998e-01 2.7442061118033010e+00 8.2201383093739206e+00 1.3751057286244462e+01 0 2 0
3680 444 1 4.1499999999999998e-01 3.3219998464656899e+00 8.9465100348306219e+00 1.1331448201256890e+01 1 -4 0
1845 444 1 4.1499999999999998e-01 1.2401111140211034e+00 9.8121047838248163e+00 1.5366887167523268e+01 3 -1 0
2772 444 1 4.1499999999999998e-01 2.3114442793205603e+00 1.0749998913851574e+01 1.3786895120508918e+01 -3 4 0
2771 444 1 4.1499999999999998e-01 1.0135075325258467e+00 1.0453998080688798e+01 1.3066035245633454e+01 -3 4 0
2770 444 2 -8.2999999999999996e-01 1.5696710581734610e+00 1.0145042765622899e+01 1.3781199993474772e+01 -3 4 0
278 444 1 4.1499999999999998e-01 1.2183447992874152e+00 5.9583803989598589e+00 1.3315032783227513e+01 5 -1 0
3254 444 1 4.1499999999999998e-01 2.8559639226128395e+00 1.1033787135791119e+01 1.0501999282558096e+01 2 -2 0
2316 444 1 4.1499999999999998e-01 5.6082260459520032e+00 6.8537783246362247e+00 1.1134008366763819e+01 4 -2 0
4226 444 1 4.1499999999999998e-01 5.4960134246212267e+00 6.6125305279893913e+00 1.3307415704785308e+01 1 -1 0
4227 444 1 4.1499999999999998e-01 3.9924121185744026e+00 6.5175429399013449e+00 1.3455927496744279e+01 1 -1 0
5668 444 2 -8.2999999999999996e-01 2.8009495586370634e+00 7.5619092081968411e+00 1.4443694904662314e+01 0 2 0
4619 444 1 4.1499999999999998e-01 1.2426502893546007e-01 6.7034445391505786e+00 1.0880383783410494e+01 0 5 0
3647 444 1 4.1499999999999998e-01 8.1682272634033382e-02 6.7936440637487090e+00 1.5817385931488610e+01 -2 -4 0
5827 444 2 -8.2999999999999996e-01 2.1436954304470722e-03 8.4154193863242845e+00 1.0854498026274403e+01 4 -1 0
2315 444 1 4.1499999999999998e-01 5.0338424365488184e+00 5.9941684293376039e+00 1.0028092673426647e+01 4 -2 0
5829 444 1 4.1499999999999998e-01 9.3601480964545847e-01 8.3129882889566780e+00 1.1037867826021643e+01 4 -1 0
2314 444 2 -8.2999999999999996e-01 5.5621123118808491e+00 6.7776192051579756e+00 1.0180957894834741e+01 4 -2 0
2132 444 1 4.1499999999999998e-01 4.5819981072943810e+00 1.1702838827206289e+01 1.3374055207517522e+01 1 0 0
3847 444 2 -8.2999999999999996e-01 2.5797010721438485e-01 6.9330839623541802e+00 1.9398832319390838e+01 -2 1 0
1843 444 2 -8.2999999999999996e-01 1.2372915678324168e+00 9.7603682267201552e+00 1.6322683839321865e+01 3 -1 0
1844 444 1 4.1499999999999998e-01 1.1986985050774210e+00 1.0671902053232753e+01 1.6612250136213788e+01 3 -1 0
1614 444 1 4.1499999999999998e-01 4.7609821652588433e+00 7.0446091972136475e+00 1.9986078555696928e+01 0 0 0
902 444 1 4.1499999999999998e-01 2.3718210155152808e+00 6.6237344605377606e+00 2.2890046458835648e+01 -1 -2 0
3848 444 1 4.1499999999999998e-01 7.1290641845812319e-01 7.7506969999660758e+00 1.9600757390054685e+01 -2 1 0
4961 444 1 4.1499999999999998e-01 3.7932176726598006e+00 1.1599998140154096e+01 1.9367328841857287e+01 -3 2 0
903 444 1 4.1499999999999998e-01 3.6302910357623448e+00 7.4507554161529512e+00 2.2734531703480510e+01 -1 -2 0
2669 444 1 4.1499999999999998e-01 5.9776160925821775e-01 1.0393280214469589e+01 2.3814983327951136e+01 -1 3 0
5568 444 1 4.1499999999999998e-01 1.3223769173818622e+00 9.7180375984799241e+00 1.8072563534284484e+01 1 3 0
5647 444 2 -8.2999999999999996e-01 5.0105116418802869e+00 9.0947257955317529e+00 1.7212280667567679e+01 -3 1 0
2807 444 1 4.1499999999999998e-01 3.7345489372014988e+00 9.6379336399777475e+00 2.2431519876086046e+01 0 -1 0
2808 444 1 4.1499999999999998e-01 4.6888593718738045e+00 9.6750250474756978e+00 2.3606173558200865e+01 0 -1 0
5648 444 1 4.1499999999999998e-01 4.1150194642022377e+00 9.0841141548375788e+00 1.6874325798293754e+01 -3 1 0
2820 444 1 4.1499999999999998e-01 3.0463690802418077e+00 9.8647013495779419e+00 1.9660904267871913e+01 1 2 0
2818 444 2 -8.2999999999999996e-01 3.6358645897969097e+00 9.9961328318967961e+00 2.0403502964871006e+01 1 2 0
2806 444 2 -8.2999999999999996e-01 4.2138828742207748e+00 9.0708394418309553e+00 2.3035568938338461e+01 0 -1 0
5567 444 1 4.1499999999999998e-01 8.5748850868328030e-01 9.9988784694617774e+00 1.9485681498984583e+01 1 3 0
5566 444 2 -8.2999999999999996e-01 1.5455115036773319e+00 9.5558100627102416e+00 1.8989146892156363e+01 1 3 0
901 444 2 -8.2999999999999996e-01 3.3266669431922313e+00 6.5566598258522504e+00 2.2891494791826052e+01 -1 -2 0
2819 444 1 4.1499999999999998e-01 4.1838352193915922e+00 9.2114130153008524e+00 2.0416735428900214e+01 1 2 0
2668 444 2 -8.2999999999999996e-01 1.4413241219718320e+00 1.0466447858402784e+01 2.4261391941136019e+01 -1 3 0
1612 444 2 -8.2999999999999996e-01 5.1174080501959915e+00 7.8922782349234124e+00 1.9720278207111974e+01 0 0 0
3646 444 2 -8.2999999999999996e-01 6.6708993898455804e-02 7.1953651375091940e+00 1.6686079330502935e+01 -2 -4 0
2444 444 1 4.1499999999999998e-01 2.1436759129827783e+00 1.1400178069402628e+01 2.2537199373204047e+01 -2 -1 0
2897 444 1 4.1499999999999998e-01 5.5358975442542482e+00 1.1344799525119214e+01 1.6831379170605501e+01 -1 3 0
5649 444 1 4.1499999999999998e-01 4.9934148047920610e+00 8.4926370907018569e+00 1.7956209341504749e+01 -3 1 0
3849 444 1 4.1499999999999998e-01 8.8715575842720551e-02 6.9787023940266870e+00 1.8457820237640238e+01 -2 1 0
3648 444 1 4.1499999999999998e-01 2.6934222010509945e-01 8.1173572537102689e+00 1.6527641152591539e+01 -2 -4 0
6038 444 1 4.1499999999999998e-01 6.4209087152075905e-01 1.1336210129400934e+01 2.7138289807896189e+01 -4 -1 0
831 444 1 4.1499999999999998e-01 4.4629618086163569e+00 6.1772186369494362e+00 2.7119855193324934e+01 -4 2 0
3497 444 1 4.1499999999999998e-01 6.1594060832221142e-01 7.0586568923879165e+00 2.5939374377082856e+01 4 5 0
1916 444 1 4.1499999999999998e-01 4.4125702439321222e+00 8.2499533698245155e+00 2.8439004983865864e+01 0 3 0
3473 444 1 4.1499999999999998e-01 2.4180975050022417e+00 6.2082911822837028e+00 2.9968674855499533e+01 4 0 0
5583 444 1 4.1499999999999998e-01 2.7137871908188722e+00 7.9102947604439011e+00 2.6221108846273530e+01 4 5 0
5581 444 2 -8.2999999999999996e-01 1.8240200292760886e+00 8.2454605775387666e+00 2.6331609937525876e+01 4 5 0
3066 444 1 4.1499999999999998e-01 2.1677621893186161e+00 8.5067083432813817e+00 2.9520854093466191e+01 -5 -3 0
1915 444 2 -8.2999999999999996e-01 4.5351546997403007e+00 8.9796270670930962e+00 2.9046278732064422e+01 0 3 0
3496 444 2 -8.2999999999999996e-01 1.9369416817863039e-01 6.6262195473432906e+00 2.5197121864455212e+01 4 5 0
3065 444 1 4.1499999999999998e-01 1.3793214904203956e+00 8.2132868205690706e+00 2.8262219734932405e+01 -5 -3 0
5510 444 1 4.1499999999999998e-01 4.6652370469207742e+00 1.0361835070831523e+01 3.0322737436373622e+01 0 -2 0
5582 444 1 4.1499999999999998e-01 1.8093097224597479e+00 9.0583482839647349e+00 2.5826407634752965e+01 4 5 0
3064 444 2 -8.2999999999999996e-01 1.5301199733166819e+00 7.8952676718269013e+00 2.9152363776581577e+01 -5 -3 0
1917 444 1 4.1499999999999998e-01 5.2829029082511241e+00 9.4621824824310039e+00 2.8693793531997539e+01 0 3 0
2670 444 1 4.1499999999999998e-01 1.2515671040103105e+00 1.0972085020356225e+01 2.5051680044966645e+01 -1 3 0
5509 444 2 -8.2999999999999996e-01 4.6350548891187824e+00 1.0812198658281519e+01 3.1166830763399940e+01 0 -2 0
5511 444 1 4.1499999999999998e-01 5.4279763195313180e+00 1.0525801590947195e+01 3.1620134458986541e+01 0 -2 0
830 444 1 4.1499999999999998e-01 4.4843352758501158e+00 6.1656959617714397e+00 2.5606149233503544e+01 -4 2 0
1328 444 1 4.1499999999999998e-01 4.7336603397941068e-01 8.2847375226176005e+00 3.1252185707738260e+01 0 -2 0
5250 444 1 4.1499999999999998e-01 5.1245270767773201e+00 1.1170348066186607e+01 2.5281627362904011e+01 2 2 0
829 444 2 -8.2999999999999996e-01 4.4955050084396522e+00 6.7569171201402973e+00 2.6358854192900807e+01 -4 2 0
1327 444 2 -8.2999999999999996e-01 9.3472504693197095e-02 8.3228055482564507e+00 3.2129946411962486e+01 0 -2 0
3476 444 1 4.1499999999999998e-01 4.0150506349951032e-01 1.1303154294797530e+01 2.8925227103569949e+01 0 -1 0
5309 444 1 4.1499999999999998e-01 5.6190531458215798e+00 7.5944197888193985e+00 3.1414075119910414e+01 0 0 0
4236 444 1 4.1499999999999998e-01 4.9975442591182295e+00 1.1702695402576564e+01 2.9202213795903933e+01 0 1 0
1147 444 2 -8.2999999999999996e-01 5.4272792037340771e+00 5.8734349738756917e+00 3.1184151810977085e+01 -2 2 0
1170 444 1 4.1499999999999998e-01 3.3891908760180933e+00 6.3592753898136571e+00 3.5263746847059991e+01 0 5 0
1168 444 2 -8.2999999999999996e-01 2.4622032765863082e+00 6.5905751592411148e+00 3.5205211871255635e+01 0 5 0
2356 444 2 -8.2999999999999996e-01 7.6299295223707941e-01 6.4751188304096230e+00 3.8307698169054291e+01 -6 -2 0
2357 444 1 4.1499999999999998e-01 1.2375173715452032e+00 7.2872704355234612e+00 3.8130305201626406e+01 -6 -2 0
5729 444 1 4.1499999999999998e-01 5.2530936704065887e+00 6.4483426353802704e+00 3.5211949009237522e+01 -2 0 0
4451 444 1 4.1499999999999998e-01 4.1317217492947211e+00 1.0210034738242276e+01 3.2868565913087856e+01 -1 -5 0
4452 444 1 4.1499999999999998e-01 3.2574218910419539e+00 9.7248608402056576e+00 3.4005272614967289e+01 -1 -5 0
1169 444 1 4.1499999999999998e-01 2.0084894122010319e+00 5.8801216919836010e+00 3.5658677983807671e+01 0 5 0
1884 444 1 4.1499999999999998e-01 1.3425439079981027e+00 8.6409409732803333e+00 3.3486998903236355e+01 4 -4 0
1883 444 1 4.1499999999999998e-01 1.9810794403719907e+00 8.1274742119293393e+00 3.4759995272520221e+01 4 -4 0
4450 444 2 -8.2999999999999996e-01 4.0909822107133138e+00 1.0158888864036156e+01 3.3823530166246918e+01 -1 -5 0
1882 444 2 -8.2999999999999996e-01 1.7452747314825801e+00 8.9353304062946872e+00 3.4303928958389093e+01 4 -4 0
3273 444 1 4.1499999999999998e-01 5.0371901325975950e+00 8.7314596116851746e+00 3.4593947690752152e+01 0 -2 0
6177 444 7 0.0000000000000000e+00 1.6907200000000000e+00 1.1721480000000000e+01 0.0000000000000000e+00 0 0 0
6178 444 7 0.0000000000000000e+00 4.2285000000000004e+00 1.3186669999999999e+01 0.0000000000000000e+00 0 0 0
6179 444 7 -1.3890000000000000e-02 1.6907700000000001e+00 1.1721480000000000e+01 7.1781499999999996e+00 0 0 0
6180 444 7 -1.3890000000000000e-02 4.2285500000000003e+00 1.3186669999999999e+01 7.1781499999999996e+00 0 0 0
6181 444 7 0.0000000000000000e+00 2.5366499999999998e+00 1.3186669999999999e+01 2.3926400000000001e+00 0 0 0
6182 444 7 0.0000000000000000e+00 5.0744199999999999e+00 1.1721480000000000e+01 2.3926400000000001e+00 0 0 0
6183 444 7 0.0000000000000000e+00 8.4509000000000001e-01 1.3186669999999999e+01 4.7824200000000001e+00 0 0 0
6184 444 7 0.0000000000000000e+00 3.3828600000000000e+00 1.1721480000000000e+01 4.7824499999999999e+00 0 0 0
6185 444 7 0.0000000000000000e+00 1.6907200000000000e+00 1.4651850000000000e+01 0.0000000000000000e+00 0 0 0
6187 444 7 -1.3890000000000000e-02 1.6907700000000001e+00 1.4651850000000000e+01 7.1781899999999998e+00 0 0 0
6190 444 7 0.0000000000000000e+00 5.0744199999999999e+00 1.4651850000000000e+01 2.3926400000000001e+00 0 0 0
6192 444 7 0.0000000000000000e+00 3.3828700000000000e+00 1.4651850000000000e+01 4.7824400000000002e+00 0 0 0
6186 444 7 0.0000000000000000e+00 4.2285000000000004e+00 1.6117039999999999e+01 0.0000000000000000e+00 0 0 0
6188 444 7 -1.3890000000000000e-02 4.2285500000000003e+00 1.6117039999999999e+01 7.1781600000000001e+00 0 0 0
6189 444 7 0.0000000000000000e+00 2.5366499999999998e+00 1.6117039999999999e+01 2.3926400000000001e+00 0 0 0
6191 444 7 0.0000000000000000e+00 8.4509000000000001e-01 1.6117039999999999e+01 4.7824499999999999e+00 0 0 0
5079 444 1 4.1499999999999998e-01 3.6341106644622156e+00 1.5698420732630053e+01 1.0495205750910024e+01 -4 0 0
3637 444 2 -8.2999999999999996e-01 8.6322610262033028e-01 1.6622229879715348e+01 1.4174829057978142e+01 4 -1 0
5078 444 1 4.1499999999999998e-01 4.0035193042924027e+00 1.4231854882088854e+01 1.0427256571474267e+01 -4 0 0
2131 444 2 -8.2999999999999996e-01 3.6696232490718033e+00 1.1931969628757923e+01 1.3550985815452142e+01 1 0 0
4717 444 2 -8.2999999999999996e-01 4.6650388214781016e+00 1.2802895852897599e+01 1.0153519121167143e+01 0 4 0
3393 444 1 4.1499999999999998e-01 2.5953702653166393e+00 1.2848251590420437e+01 1.1067103256280898e+01 2 0 0
2474 444 1 4.1499999999999998e-01 2.8657236108608282e+00 1.6537481130375490e+01 1.4976304774346232e+01 -4 -3 0
1851 444 1 4.1499999999999998e-01 2.6921072212100912e+00 1.4495214131270881e+01 1.2538954511408622e+01 -2 1 0
5039 444 1 4.1499999999999998e-01 3.3512190513947360e+00 1.2991336863658063e+01 1.5217755375158715e+01 3 3 0
5077 444 2 -8.2999999999999996e-01 3.6874090082552908e+00 1.4905728361978655e+01 1.1029087710322150e+01 -4 0 0
1849 444 2 -8.2999999999999996e-01 2.2465461889131215e+00 1.4407244553075881e+01 1.3381551224359448e+01 -2 1 0
3391 444 2 -8.2999999999999996e-01 1.7859785305020976e+00 1.2337550489067166e+01 1.1049741167985344e+01 2 0 0
3392 444 1 4.1499999999999998e-01 1.0893143797894114e+00 1.2989168352242656e+01 1.1129020469635803e+01 2 0 0
1850 444 1 4.1499999999999998e-01 1.7335640557766814e+00 1.5210868835099953e+01 1.3466817174708124e+01 -2 1 0
740 444 1 4.1499999999999998e-01 1.1133235910978811e+00 1.6446764626089379e+01 1.1041759644764426e+01 -1 1 0
2133 444 1 4.1499999999999998e-01 3.5683424203939169e+00 1.2811745393214045e+01 1.3187710577859916e+01 1 0 0
2475 444 1 4.1499999999999998e-01 4.2904923313103271e+00 1.6550363944127067e+01 1.5487932902697036e+01 -4 -3 0
2473 444 2 -8.2999999999999996e-01 3.4405498852706740e+00 1.6132165593667562e+01 1.5625555094739338e+01 -4 -3 0
739 444 2 -8.2999999999999996e-01 2.1178430676739424e-01 1.6740694457711694e+01 1.1172389320718452e+01 -1 1 0
5040 444 1 4.1499999999999998e-01 3.2465330780894197e+00 1.4315789638545136e+01 1.5943538600393886e+01 3 3 0
5038 444 2 -8.2999999999999996e-01 3.3600609279831848e+00 1.3377276117022397e+01 1.6093657673757207e+01 3 3 0
3833 444 1 4.1499999999999998e-01 5.1799849935191915e+00 1.5905094472679744e+01 1.1188576184365902e+01 -3 -4 0